
     Program PWSCF v.6.2 (svn rev. 14038) starts on 22Jun2021 at 19: 0: 1 

     This program is part of the open-source Quantum ESPRESSO suite
     for quantum simulation of materials; please cite
         "P. Giannozzi et al., J. Phys.:Condens. Matter 21 395502 (2009);
         "P. Giannozzi et al., J. Phys.:Condens. Matter 29 465901 (2017);
          URL http://www.quantum-espresso.org", 
     in publications or presentations arising from this work. More details at
     http://www.quantum-espresso.org/quote

     Parallel version (MPI), running on    12 processors

     MPI processes distributed on     1 nodes
     R & G space division:  proc/nbgrp/npool/nimage =      12
     Waiting for input...
     Reading input from standard input

     Current dimensions of program PWSCF are:
     Max number of different atomic species (ntypx) = 10
     Max number of k-points (npk) =  40000
     Max angular momentum in pseudopotentials (lmaxx) =  3
               file Ir.pbe-n-rrkjus_psl.0.2.3.UPF: wavefunction(s)  5D renormalized

     gamma-point specific algorithms are used

     Subspace diagonalization in iterative solution of the eigenvalue problem:
     a serial algorithm will be used

 
     Parallelization info
     --------------------
     sticks:   dense  smooth     PW     G-vecs:    dense   smooth      PW
     Min         353     140     34                17398     4383     546
     Max         356     144     36                17404     4390     556
     Sum        4257    1701    421               208801    52635    6619
 


     bravais-lattice index     =            0
     lattice parameter (alat)  =      13.3514  a.u.
     unit-cell volume          =    2380.0325 (a.u.)^3
     number of atoms/cell      =           25
     number of atomic types    =            4
     number of electrons       =        72.00
     number of Kohn-Sham states=          100
     kinetic-energy cutoff     =      30.0000  Ry
     charge density cutoff     =     300.0000  Ry
     convergence threshold     =      1.0E-04
     mixing beta               =       0.3000
     number of iterations used =            8  plain     mixing
     Exchange-correlation      = PBE ( 1  4  3  4 0 0)

     celldm(1)=  13.351425  celldm(2)=   0.000000  celldm(3)=   0.000000
     celldm(4)=   0.000000  celldm(5)=   0.000000  celldm(6)=   0.000000

     crystal axes: (cart. coord. in units of alat)
               a(1) = (   1.000000   0.000000   0.000000 )  
               a(2) = (   0.000000   1.000000   0.000000 )  
               a(3) = (   0.000000   0.000000   1.000000 )  

     reciprocal axes: (cart. coord. in units 2 pi/alat)
               b(1) = (  1.000000  0.000000  0.000000 )  
               b(2) = (  0.000000  1.000000  0.000000 )  
               b(3) = (  0.000000  0.000000  1.000000 )  


     PseudoPot. # 1 for C  read from file:
     /util/academic/espresso/6.2.1/pseudopotentials/upf_files/C.pbe-n-rrkjus_psl.0.1.UPF
     MD5 check sum: ab446d787031eba755f1d5ee46644bb0
     Pseudo is Ultrasoft + core correction, Zval =  4.0
     Generated using "atomic" code by A. Dal Corso v.5.0.2 svn rev. 9415
     Using radial grid of 1073 points,  4 beta functions with: 
                l(1) =   0
                l(2) =   0
                l(3) =   1
                l(4) =   1
     Q(r) pseudized with 0 coefficients 


     PseudoPot. # 2 for H  read from file:
     /util/academic/espresso/6.2.1/pseudopotentials/upf_files/H.pbe-rrkjus_psl.0.1.UPF
     MD5 check sum: bd57da0722753ddfd9833a65b40bb853
     Pseudo is Ultrasoft, Zval =  1.0
     Generated using "atomic" code by A. Dal Corso v.5.0.2 svn rev. 9415
     Using radial grid of  929 points,  2 beta functions with: 
                l(1) =   0
                l(2) =   0
     Q(r) pseudized with 0 coefficients 


     PseudoPot. # 3 for Ir read from file:
     /util/academic/espresso/6.2.1/pseudopotentials/upf_files/Ir.pbe-n-rrkjus_psl.0.2.3.UPF
     MD5 check sum: 0d5bc36db6a0bde07ee800c0d8fcbb77
     Pseudo is Ultrasoft + core correction, Zval =  9.0
     Generated using "atomic" code by A. Dal Corso v.5.0.2 svn rev. 9415
     Using radial grid of 1277 points,  6 beta functions with: 
                l(1) =   0
                l(2) =   0
                l(3) =   1
                l(4) =   1
                l(5) =   2
                l(6) =   2
     Q(r) pseudized with 0 coefficients 


     PseudoPot. # 4 for N  read from file:
     /util/academic/espresso/6.2.1/pseudopotentials/upf_files/N.pbe-n-rrkjus_psl.0.1.UPF
     MD5 check sum: ed8b6a90f28a53b7d71920e7015d2dd6
     Pseudo is Ultrasoft + core correction, Zval =  5.0
     Generated using "atomic" code by A. Dal Corso v.5.0.2 svn rev. 9415
     Using radial grid of 1085 points,  4 beta functions with: 
                l(1) =   0
                l(2) =   0
                l(3) =   1
                l(4) =   1
     Q(r) pseudized with 0 coefficients 


     atomic species   valence    mass     pseudopotential
        C              4.00    12.01000     C ( 1.00)
        H              1.00     1.00700     H ( 1.00)
        Ir             9.00   192.21700     Ir( 1.00)
        N              5.00    14.00600     N ( 1.00)

     No symmetry found



   Cartesian axes

     site n.     atom                  positions (alat units)
         1           Ir  tau(   1) = (   0.0003066   0.0065320   0.0044624  )
         2           N   tau(   2) = (   0.1724958  -0.1920523  -0.1595188  )
         3           N   tau(   3) = (  -0.2363864   0.0068024  -0.1844813  )
         4           N   tau(   4) = (   0.1028946   0.2210932  -0.1677619  )
         5           C   tau(   5) = (  -0.0878889   0.2244903   0.1572492  )
         6           C   tau(   6) = (   0.2074830  -0.0531481   0.1936734  )
         7           C   tau(   7) = (   0.2846608  -0.2856504  -0.0480532  )
         8           C   tau(   8) = (   0.3112782  -0.2134029   0.1459984  )
         9           C   tau(   9) = (  -0.1568606  -0.1969869   0.1211479  )
        10           C   tau(  10) = (   0.0671094   0.3831286  -0.1035840  )
        11           C   tau(  11) = (  -0.0212922   0.3915327   0.0855436  )
        12           C   tau(  12) = (  -0.3455790  -0.1370417  -0.1441201  )
        13           C   tau(  13) = (  -0.3113786  -0.2485010   0.0151031  )
        14           H   tau(  14) = (   0.2626614   0.0390955   0.3181345  )
        15           H   tau(  15) = (   0.4154425  -0.2766711   0.2485101  )
        16           H   tau(  16) = (   0.3767283  -0.3881648  -0.1138118  )
        17           H   tau(  17) = (   0.1035109   0.4979191  -0.2015325  )
        18           H   tau(  18) = (  -0.0204420   0.5296940   0.1580879  )
        19           H   tau(  19) = (  -0.1627365   0.2094697   0.2928682  )
        20           H   tau(  20) = (  -0.3980837  -0.3618467   0.0644669  )
        21           H   tau(  21) = (  -0.1378181  -0.2578181   0.2622185  )
        22           H   tau(  22) = (  -0.4733386  -0.1611674  -0.2254274  )
        23           H   tau(  23) = (   0.1701903  -0.2328176  -0.2956889  )
        24           H   tau(  24) = (   0.1408128   0.2075134  -0.3143860  )
        25           H   tau(  25) = (  -0.2522106   0.0664169  -0.3202208  )

     number of k points=     1  gaussian smearing, width (Ry)=  0.0100
                       cart. coord. in units 2pi/alat
        k(    1) = (   0.0000000   0.0000000   0.0000000), wk =   2.0000000

     Dense  grid:   104401 G-vectors     FFT dimensions: (  75,  75,  75)

     Smooth grid:    26318 G-vectors     FFT dimensions: (  48,  48,  48)

     Estimated max dynamical RAM per process >      46.16 MB

     Estimated total dynamical RAM >     553.92 MB

     Check: negative/imaginary core charge=   -0.000002    0.000000

     Initial potential from superposition of free atoms

     starting charge   71.99934, renormalised to   72.00000
     Starting wfc are   69 randomized atomic wfcs +   31 random wfc

     total cpu time spent up to now is        2.6 secs

     Self-consistent Calculation

     iteration #  1     ecut=    30.00 Ry     beta= 0.30
     Davidson diagonalization with overlap
     ethr =  1.00E-02,  avg # of iterations =  5.0

     total cpu time spent up to now is        3.0 secs

     total energy              =    -243.67238632 Ry
     Harris-Foulkes estimate   =    -244.93509886 Ry
     estimated scf accuracy    <       3.31015169 Ry

     iteration #  2     ecut=    30.00 Ry     beta= 0.30
     Davidson diagonalization with overlap
     ethr =  4.60E-03,  avg # of iterations =  1.0

     total cpu time spent up to now is        3.2 secs

     total energy              =    -243.78086078 Ry
     Harris-Foulkes estimate   =    -244.08604513 Ry
     estimated scf accuracy    <       0.87559432 Ry

     iteration #  3     ecut=    30.00 Ry     beta= 0.30
     Davidson diagonalization with overlap
     ethr =  1.22E-03,  avg # of iterations =  4.0

     total cpu time spent up to now is        3.5 secs

     total energy              =    -243.81815626 Ry
     Harris-Foulkes estimate   =    -243.92402485 Ry
     estimated scf accuracy    <       0.34193712 Ry

     iteration #  4     ecut=    30.00 Ry     beta= 0.30
     Davidson diagonalization with overlap
     ethr =  4.75E-04,  avg # of iterations =  3.0

     negative rho (up, down):  3.925E-08 0.000E+00

     total cpu time spent up to now is        3.7 secs

     total energy              =    -243.83959047 Ry
     Harris-Foulkes estimate   =    -243.85840605 Ry
     estimated scf accuracy    <       0.05479578 Ry

     iteration #  5     ecut=    30.00 Ry     beta= 0.30
     Davidson diagonalization with overlap
     ethr =  7.61E-05,  avg # of iterations =  6.0

     negative rho (up, down):  3.116E-08 0.000E+00

     total cpu time spent up to now is        4.0 secs

     total energy              =    -243.84923112 Ry
     Harris-Foulkes estimate   =    -243.84993636 Ry
     estimated scf accuracy    <       0.00445296 Ry

     iteration #  6     ecut=    30.00 Ry     beta= 0.30
     Davidson diagonalization with overlap
     ethr =  6.18E-06,  avg # of iterations =  2.0

     negative rho (up, down):  1.759E-08 0.000E+00

     total cpu time spent up to now is        4.3 secs

     total energy              =    -243.84946808 Ry
     Harris-Foulkes estimate   =    -243.84957923 Ry
     estimated scf accuracy    <       0.00089881 Ry

     iteration #  7     ecut=    30.00 Ry     beta= 0.30
     Davidson diagonalization with overlap
     ethr =  1.25E-06,  avg # of iterations =  1.0

     total cpu time spent up to now is        4.5 secs

     End of self-consistent calculation

          k = 0.0000 0.0000 0.0000 (  3310 PWs)   bands (ev):

   -18.6491 -18.3460 -17.8936 -14.2073 -13.8180 -13.7215 -11.3521 -10.7221
   -10.5066  -9.0364  -8.5319  -8.4068  -8.1331  -8.0008  -7.7842  -6.3880
    -5.8844  -5.7697  -5.5197  -5.2011  -4.9984  -4.7759  -4.3577  -4.0401
    -3.8809  -3.7111  -3.6592  -2.2903  -2.2030  -2.1087  -1.7629  -1.3616
    -1.2527  -0.3627  -0.2867   0.2079   2.1568   2.5383   3.0908   3.1623
     4.6368   5.0356   5.1366   5.3941   5.4657   5.8018   5.9033   6.0973
     6.3386   6.5721   7.0011   7.4200   7.7263   7.8332   8.1446   8.3201
     8.5182   8.7267   9.0716   9.2260   9.6587   9.7736   9.9757  10.6312
    10.8111  10.9448  11.1623  11.2502  11.6610  11.7990  11.9363  12.3059
    12.3917  12.4917  12.5652  12.8751  12.9582  13.0869  13.2158  13.6741
    13.8925  14.0202  14.2804  14.4196  14.4592  14.6776  14.7231  14.9508
    14.9648  15.3320  15.4907  15.6718  15.9179  16.1178  16.1688  16.4020
    16.5008  16.7989  16.9447  16.9701

     the Fermi energy is     1.4207 ev

!    total energy              =    -243.84961262 Ry
     Harris-Foulkes estimate   =    -243.84955332 Ry
     estimated scf accuracy    <       0.00008346 Ry

     The total energy is the sum of the following terms:

     one-electron contribution =    -328.99224128 Ry
     hartree contribution      =     188.60331009 Ry
     xc contribution           =     -93.16432228 Ry
     ewald contribution        =     -10.29635915 Ry
     smearing contrib. (-TS)   =      -0.00000000 Ry

     convergence has been achieved in   7 iterations

     Writing output data file x0.save
 
     init_run     :      0.39s CPU      0.45s WALL (       1 calls)
     electrons    :      1.81s CPU      1.90s WALL (       1 calls)

     Called by init_run:
     wfcinit      :      0.03s CPU      0.04s WALL (       1 calls)
     potinit      :      0.08s CPU      0.08s WALL (       1 calls)

     Called by electrons:
     c_bands      :      0.89s CPU      0.91s WALL (       7 calls)
     sum_band     :      0.43s CPU      0.44s WALL (       7 calls)
     v_of_rho     :      0.23s CPU      0.23s WALL (       8 calls)
     newd         :      0.27s CPU      0.30s WALL (       8 calls)
     mix_rho      :      0.03s CPU      0.03s WALL (       7 calls)

     Called by c_bands:
     init_us_2    :      0.00s CPU      0.00s WALL (      15 calls)
     regterg      :      0.88s CPU      0.90s WALL (       7 calls)

     Called by sum_band:
     sum_band:bec :      0.00s CPU      0.00s WALL (       7 calls)
     addusdens    :      0.29s CPU      0.30s WALL (       7 calls)

     Called by *egterg:
     h_psi        :      0.43s CPU      0.44s WALL (      30 calls)
     s_psi        :      0.01s CPU      0.01s WALL (      30 calls)
     g_psi        :      0.00s CPU      0.00s WALL (      22 calls)
     rdiaghg      :      0.35s CPU      0.36s WALL (      29 calls)

     Called by h_psi:
     h_psi:pot    :      0.42s CPU      0.44s WALL (      30 calls)
     h_psi:calbec :      0.02s CPU      0.02s WALL (      30 calls)
     vloc_psi     :      0.40s CPU      0.41s WALL (      30 calls)
     add_vuspsi   :      0.01s CPU      0.01s WALL (      30 calls)

     General routines
     calbec       :      0.02s CPU      0.02s WALL (      37 calls)
     fft          :      0.23s CPU      0.23s WALL (     124 calls)
     ffts         :      0.01s CPU      0.01s WALL (      15 calls)
     fftw         :      0.42s CPU      0.43s WALL (    2176 calls)
     interpolate  :      0.04s CPU      0.04s WALL (      15 calls)
 
     Parallel routines
     fft_scatt_xy :      0.04s CPU      0.04s WALL (    2315 calls)
     fft_scatt_yz :      0.13s CPU      0.13s WALL (    2315 calls)
 
     PWSCF        :     3.70s CPU         4.94s WALL

 
   This run was terminated on:  19: 0: 6  22Jun2021            

=------------------------------------------------------------------------------=
   JOB DONE.
=------------------------------------------------------------------------------=
