# Projected DOS for atomic kind C at iteration step i = 0, E(Fermi) =    -0.385734 a.u.
#     MO Eigenvalue [a.u.]      Occupation                 s                py                pz                px               d-2               d-1                d0               d+1               d+2
       1         -1.938313        2.000000        0.41357673        0.05355664        0.18795201        0.23551611        0.01014183        0.01028909        0.03100774        0.02452165        0.03336910
       2         -1.862898        2.000000        0.43911841        0.05360561        0.15548736        0.23337430        0.01595450        0.01523743        0.01593178        0.02325822        0.04795998
       3         -1.787360        2.000000        0.44884409        0.14292759        0.21598357        0.10425235        0.01908454        0.01441853        0.01897101        0.01515254        0.02028293
       4         -1.760465        2.000000        0.34622584        0.09028113        0.35006126        0.11400203        0.02109330        0.02821176        0.02043206        0.02033237        0.00931743
       5         -1.750548        2.000000        0.38566374        0.16604148        0.19890666        0.15137423        0.02781046        0.02387610        0.02089914        0.01715288        0.00821849
       6         -1.716056        2.000000        0.33652217        0.08430921        0.29719702        0.16833729        0.01160165        0.02072223        0.02248872        0.04237212        0.01642854
       7         -1.698964        2.000000        0.32768233        0.06115762        0.18762889        0.33964419        0.01496197        0.01226443        0.02444904        0.02305831        0.00914428
       8         -1.688238        2.000000        0.19715339        0.14395037        0.02366587        0.12625863        0.00777877        0.00756569        0.03103539        0.01476586        0.00815343
       9         -1.673894        2.000000        0.40347371        0.13673215        0.17183690        0.18688574        0.01777098        0.02284833        0.02594145        0.02387690        0.01040949
      10         -1.668790        2.000000        0.32109877        0.23555255        0.15481728        0.18092325        0.01287370        0.02813422        0.02489055        0.01827887        0.02341177
      11         -1.654758        2.000000        0.31829761        0.14023551        0.30329868        0.12089053        0.01429131        0.03972290        0.02318778        0.02865851        0.01137039
      12         -1.650097        2.000000        0.30220315        0.04650581        0.40943150        0.15776513        0.01226143        0.01541633        0.02307596        0.02196957        0.01135670
      13         -1.647301        2.000000        0.17452687        0.14912789        0.02063592        0.14409393        0.01905124        0.00494393        0.02583250        0.00707942        0.01329192
      14         -1.644831        2.000000        0.34262744        0.12976194        0.24059557        0.18486854        0.01859999        0.02507693        0.02247846        0.01920517        0.01617117
      15         -1.632971        2.000000        0.34138011        0.15702894        0.20910431        0.19257384        0.01266872        0.01567254        0.02615827        0.02533847        0.02004670
      16         -1.608182        2.000000        0.34283986        0.16709535        0.19408941        0.18421760        0.02406615        0.02296279        0.02573420        0.02575397        0.01309956
      17         -1.600464        2.000000        0.16135449        0.13011717        0.00679132        0.12708200        0.01700872        0.00282301        0.02845296        0.00187834        0.01519926
      18         -1.596002        2.000000        0.34408008        0.12344500        0.19671358        0.22314137        0.03101403        0.02195469        0.02462855        0.01725157        0.01761938
      19         -1.579249        2.000000        0.31939697        0.16991350        0.22252453        0.16644967        0.01374143        0.03472874        0.02237288        0.03109787        0.01975422
      20         -1.561803        2.000000        0.11869655        0.11860581        0.01380701        0.11778274        0.01265707        0.00222605        0.04109659        0.00221317        0.00971919
      21         -1.551568        2.000000        0.33636284        0.11035636        0.24387387        0.18237411        0.02886393        0.02713431        0.01501635        0.02655398        0.02939120
      22         -1.542873        2.000000        0.31988967        0.16493067        0.26149425        0.13451332        0.01849018        0.03352805        0.01840416        0.03301273        0.01570166
      23         -1.540810        2.000000        0.36364513        0.15862920        0.17958054        0.17057512        0.02129646        0.02425366        0.04209987        0.02117986        0.01867570
      24         -1.527261        2.000000        0.22598345        0.11581302        0.07100102        0.16242720        0.01986790        0.01401419        0.01535900        0.01079973        0.02676288
      25         -1.526414        2.000000        0.36316900        0.18068868        0.15858269        0.16497080        0.02284376        0.02072609        0.03323475        0.03259236        0.01931809
      26         -1.517554        2.000000        0.35468664        0.12301012        0.24137747        0.14867612        0.02642226        0.02092077        0.03322223        0.02547214        0.02612842
      27         -1.515591        2.000000        0.39918961        0.16027092        0.12919965        0.21370707        0.01308011        0.01677302        0.03448123        0.01711078        0.01604892
      28         -1.511020        2.000000        0.12640021        0.12416816        0.00532532        0.12783765        0.02594816        0.00287700        0.02614443        0.00157654        0.01482190
      29         -1.504237        2.000000        0.32997998        0.17147323        0.24442245        0.14833527        0.01589576        0.02693279        0.02305567        0.02562342        0.01418603
      30         -1.491784        2.000000        0.32966392        0.20248646        0.18740859        0.16972242        0.02232538        0.02221769        0.02470203        0.02834565        0.01300180
      31         -1.486668        2.000000        0.30039448        0.06092702        0.28601183        0.24556039        0.01258199        0.01723847        0.01623509        0.05176260        0.00923965
      32         -1.483611        2.000000        0.18404636        0.14444261        0.02709632        0.11723049        0.04170806        0.00752433        0.00490899        0.00595505        0.02037137
      33         -1.475578        2.000000        0.36070478        0.18982272        0.19583664        0.13557608        0.02400552        0.03493410        0.02126280        0.02145359        0.01632147
      34         -1.463067        2.000000        0.24158381        0.25828843        0.19662286        0.20158455        0.01491119        0.02649159        0.01979538        0.02383992        0.01686677
      35         -1.457711        2.000000        0.37856892        0.15789441        0.06595917        0.14515831        0.01735976        0.01193922        0.00992737        0.01502355        0.01722320
      36         -1.457216        2.000000        0.23251262        0.19255022        0.13732968        0.34658764        0.02021928        0.01227098        0.02468675        0.02593757        0.00779521
      37         -1.450993        2.000000        0.29164375        0.16465779        0.26485390        0.17478388        0.02170672        0.01546473        0.03886266        0.01710105        0.01016458
      38         -1.449790        2.000000        0.24375616        0.13803788        0.02369433        0.12890508        0.01137348        0.01002693        0.01868563        0.01997310        0.01087120
      39         -1.449110        2.000000        0.24804265        0.09496448        0.03207346        0.12795247        0.01772800        0.00401444        0.00663548        0.00916545        0.03756363
      40         -1.433073        2.000000        0.23573664        0.23916333        0.26579904        0.14194851        0.01906234        0.02670885        0.03011374        0.02213129        0.01928791
      41         -1.430919        2.000000        0.19864692        0.21232900        0.19181706        0.30100245        0.01411683        0.02295842        0.02582896        0.01599717        0.01728709
      42         -1.411594        2.000000        0.24953633        0.16661486        0.32771416        0.16035864        0.01704535        0.01988904        0.02462128        0.01921348        0.01493684
      43         -1.411369        2.000000        0.25946744        0.17605715        0.30882540        0.15881015        0.01418788        0.02001284        0.02112226        0.02010603        0.02132162
      44         -1.405424        2.000000        0.28857690        0.22456988        0.21989604        0.16487791        0.01208168        0.01630410        0.02744751        0.01865265        0.02743782
      45         -1.404708        2.000000        0.28453115        0.05058181        0.38363860        0.16189944        0.01595195        0.01876689        0.04828198        0.02124957        0.01507330
      46         -1.402834        2.000000        0.28235530        0.15705006        0.04334994        0.17456584        0.03261793        0.00633411        0.00857756        0.01732227        0.01963905
      47         -1.399770        2.000000        0.27059319        0.23000995        0.21104591        0.19390016        0.01415392        0.01623864        0.02936459        0.01332545        0.02131172
      48         -1.389987        2.000000        0.27258402        0.16910099        0.28087314        0.16503234        0.01881332        0.02060363        0.03049399        0.01873797        0.02370112
      49         -1.381422        2.000000        0.28775577        0.20237973        0.22445045        0.18027227        0.01880551        0.02518342        0.02260219        0.02523290        0.01321944
      50         -1.370606        2.000000        0.21945360        0.12134356        0.04099766        0.10045939        0.04334965        0.00319760        0.01469443        0.00472680        0.02672352
      51         -1.369414        2.000000        0.41148061        0.28095970        0.11858014        0.08641586        0.01857720        0.01938205        0.01245177        0.01713158        0.03490929
      52         -1.368873        2.000000        0.22340938        0.12165636        0.03421811        0.15140681        0.02201669        0.00665143        0.01047974        0.00770472        0.01351313
      53         -1.366658        2.000000        0.18482559        0.16199072        0.06780710        0.27328986        0.02424951        0.00961353        0.01065227        0.01071924        0.01672972
      54         -1.366386        2.000000        0.21839998        0.20405521        0.18011527        0.22733923        0.02629113        0.01999549        0.01953980        0.01644603        0.02277125
      55         -1.359278        2.000000        0.22464401        0.26396730        0.19682876        0.21277414        0.01948058        0.02138658        0.02284221        0.01929455        0.01873174
      56         -1.355798        2.000000        0.22746071        0.18813733        0.31655788        0.15239293        0.02378339        0.02746663        0.02735089        0.01910854        0.01767389
      57         -1.343372        2.000000        0.14229120        0.07202256        0.02429841        0.21361640        0.01376452        0.02044163        0.01983425        0.00754725        0.02387229
      58         -1.341640        2.000000        0.16839780        0.35020754        0.17491271        0.18959262        0.02979655        0.02857948        0.02149286        0.01744933        0.01954085
      59         -1.338016        2.000000        0.21916732        0.18285084        0.26523719        0.24036295        0.01408821        0.01988212        0.01304762        0.02529713        0.02002654
      60         -1.334641        2.000000        0.23022298        0.22986112        0.20700302        0.22901832        0.01860040        0.02527113        0.02359699        0.02225827        0.01413142
      61         -1.332829        2.000000        0.30571556        0.17820234        0.06904309        0.13004672        0.02113759        0.01047383        0.00830323        0.01431079        0.01308807
      62         -1.329830        2.000000        0.16885284        0.44709944        0.13568491        0.12736728        0.02771400        0.02948604        0.02418125        0.01633029        0.02311347
      63         -1.328729        2.000000        0.24678548        0.19278809        0.02722386        0.13776187        0.03252878        0.00485334        0.01065762        0.00443602        0.04720245
      64         -1.322162        2.000000        0.19800192        0.35929339        0.15818550        0.16177866        0.02457164        0.03492261        0.01993464        0.01815434        0.02505402
      65         -1.319100        2.000000        0.16481670        0.26135856        0.29940287        0.17624061        0.02055466        0.02302458        0.02319022        0.01596530        0.01357180
      66         -1.318526        2.000000        0.17504461        0.12874727        0.02224408        0.16650472        0.00838085        0.00235657        0.00604399        0.00780934        0.03580568
      67         -1.313549        2.000000        0.33183586        0.13634045        0.11266046        0.17016194        0.01920478        0.00906729        0.00553672        0.01217718        0.02048183
      68         -1.304222        2.000000        0.36137188        0.24921286        0.12711590        0.15684799        0.02926878        0.01866005        0.01836360        0.02159053        0.01711550
      69         -1.297982        2.000000        0.18267533        0.23061802        0.22690378        0.26093761        0.01213782        0.02495486        0.02075240        0.02487459        0.01608973
      70         -1.297812        2.000000        0.26615255        0.19054167        0.23372296        0.19437929        0.02102142        0.02503103        0.02540317        0.02000856        0.02355568
      71         -1.294084        2.000000        0.18241645        0.27017862        0.20414028        0.23087358        0.02836854        0.02079564        0.01934561        0.01992051        0.02307165
      72         -1.292383        2.000000        0.25735577        0.12111468        0.05705102        0.16568395        0.02446509        0.01110505        0.01230268        0.00733834        0.02920946
      73         -1.290824        2.000000        0.27914270        0.32415005        0.12977668        0.16503960        0.01084989        0.02237801        0.02134572        0.02253541        0.02465544
      74         -1.288305        2.000000        0.25357423        0.11054875        0.17171564        0.19926856        0.01920117        0.00952077        0.00702963        0.00513829        0.02364260
      75         -1.277634        2.000000        0.23374797        0.26486022        0.21207729        0.18971806        0.01799365        0.02319207        0.01910705        0.02049789        0.01871933
      76         -1.274738        2.000000        0.20974321        0.31827224        0.15175499        0.21691581        0.01391071        0.03171421        0.02604908        0.01672336        0.01490126
      77         -1.269182        2.000000        0.20404186        0.08847145        0.04124035        0.10348180        0.04946766        0.00497953        0.01200403        0.00500095        0.03141602
      78         -1.267929        2.000000        0.24217399        0.09826244        0.03797142        0.17851539        0.02675437        0.00432589        0.00435712        0.00441769        0.02022286
      79         -1.267030        2.000000        0.34856053        0.21989386        0.21540828        0.11579886        0.01414940        0.02521943        0.01716954        0.02148913        0.02151035
      80         -1.265209        2.000000        0.13109641        0.16354981        0.25110932        0.35065927        0.01308598        0.02251780        0.01821765        0.03594410        0.01374481
      81         -1.262566        2.000000        0.20036004        0.22112912        0.21059389        0.26505183        0.01905625        0.02104789        0.02151552        0.02014942        0.02100367
      82         -1.251160        2.000000        0.15649025        0.17970899        0.40301414        0.15857561        0.01766931        0.01895984        0.02337377        0.02171778        0.02044497
      83         -1.250995        2.000000        0.28033220        0.23573457        0.20435402        0.18509187        0.01437596        0.02478658        0.01559133        0.02583156        0.01364524
      84         -1.239581        2.000000        0.27880444        0.18323419        0.23888860        0.17597368        0.02412527        0.01796853        0.03215574        0.02470756        0.02411338
      85         -1.232838        2.000000        0.24056215        0.20145841        0.22625356        0.21707736        0.01881033        0.02358414        0.02922469        0.01840234        0.02454323
      86         -1.230556        2.000000        0.28208167        0.25376142        0.17459312        0.17504386        0.02263811        0.03706025        0.01129701        0.03202078        0.01143645
      87         -1.229643        2.000000        0.15046338        0.19751579        0.29872903        0.25176179        0.01667264        0.01997642        0.01984526        0.01749949        0.02581298
      88         -1.229155        2.000000        0.17040904        0.20960800        0.04136247        0.17860082        0.02119342        0.00861518        0.00532749        0.00774411        0.03572074
      89         -1.228655        2.000000        0.16342415        0.18223640        0.04757436        0.14426048        0.01919295        0.00590371        0.00575630        0.00507720        0.02950323
      90         -1.226676        2.000000        0.28696910        0.17684276        0.04360524        0.14005878        0.03701031        0.00779206        0.00956067        0.00831082        0.02800352
      91         -1.221221        2.000000        0.16688994        0.11777714        0.24589235        0.35022403        0.01734153        0.01340482        0.04102414        0.02371281        0.02367799
      92         -1.216157        2.000000        0.19005447        0.18077663        0.06366948        0.13144575        0.01870138        0.01129007        0.01024647        0.00401916        0.03127080
      93         -1.211884        2.000000        0.32759723        0.17992956        0.04261507        0.11871434        0.03755824        0.01518822        0.00927809        0.01295064        0.02201114
      94         -1.210558        2.000000        0.32503192        0.10535185        0.17183612        0.28459958        0.01665780        0.02640906        0.03073042        0.01981991        0.01899127
      95         -1.208642        2.000000        0.21553973        0.12434102        0.04699185        0.14269659        0.02190529        0.00620427        0.01260239        0.00654143        0.02984735
      96         -1.207305        2.000000        0.22145720        0.23028082        0.17646910        0.26104677        0.02078755        0.01682082        0.03339764        0.01869947        0.02097545
      97         -1.202454        2.000000        0.34986562        0.19110337        0.15441493        0.19568794        0.01284945        0.01351456        0.03062832        0.03094142        0.02075410
      98         -1.195706        2.000000        0.18826094        0.19099329        0.04135895        0.16004270        0.02169963        0.00465203        0.00580898        0.00784736        0.01537990
      99         -1.194322        2.000000        0.15247334        0.22837654        0.21791384        0.29384035        0.01710947        0.01835250        0.02960093        0.01938531        0.02278752
     100         -1.189576        2.000000        0.19491295        0.24943316        0.20283815        0.22342580        0.02086008        0.02829165        0.02421774        0.02060250        0.03535725
     101         -1.183128        2.000000        0.18321001        0.14871206        0.25276682        0.31008317        0.01318016        0.01479385        0.03423388        0.02433275        0.01865511
     102         -1.173548        2.000000        0.14713319        0.26954374        0.25216891        0.22541014        0.01865176        0.01825286        0.02907147        0.01746322        0.02190474
     103         -1.172726        2.000000        0.29784840        0.24640749        0.19624690        0.13023783        0.01671653        0.02544737        0.02521062        0.02040570        0.01848156
     104         -1.172601        2.000000        0.33858815        0.13867075        0.06340405        0.12709165        0.01873565        0.01226024        0.00581135        0.00848535        0.02434187
     105         -1.170339        2.000000        0.33785115        0.19783691        0.19901636        0.16485615        0.01162870        0.01893110        0.03556874        0.01274618        0.02146856
     106         -1.167024        2.000000        0.20154858        0.13842765        0.08863871        0.25336294        0.01100844        0.00536875        0.01181682        0.01325903        0.03753658
     107         -1.165006        2.000000        0.15408661        0.25404807        0.25282845        0.23375709        0.01668776        0.02045775        0.02507079        0.02013221        0.02286829
     108         -1.159016        2.000000        0.34469749        0.23505192        0.18356404        0.12519535        0.01404832        0.03306148        0.03128076        0.01510342        0.01795620
     109         -1.155927        2.000000        0.07454930        0.41559168        0.18456766        0.19971428        0.01999131        0.03669379        0.02544471        0.01833132        0.02506310
     110         -1.151809        2.000000        0.16703106        0.25273441        0.19917867        0.24945913        0.02595877        0.02568626        0.02729757        0.02604399        0.02657169
     111         -1.147577        2.000000        0.13801436        0.30929690        0.20450799        0.23761892        0.02406261        0.02209629        0.01551504        0.02541972        0.02289716
     112         -1.145954        2.000000        0.12908169        0.26387339        0.07506866        0.17590495        0.02907284        0.01650855        0.00599137        0.00583536        0.02699941
     113         -1.143270        2.000000        0.33769282        0.15757172        0.23288320        0.15957078        0.02922852        0.01797648        0.02745412        0.01440435        0.02316351
     114         -1.140707        2.000000        0.20291638        0.20496243        0.12500358        0.12425613        0.02002540        0.00757783        0.00965516        0.00811228        0.01579434
     115         -1.136261        2.000000        0.37220639        0.16531062        0.03178931        0.12887524        0.00597181        0.00462772        0.02281695        0.03389319        0.01884555
     116         -1.135050        2.000000        0.19314087        0.31699589        0.13901016        0.23101439        0.02199519        0.02689768        0.02189626        0.02857085        0.02039869
     117         -1.134519        2.000000        0.09763153        0.36699239        0.11755204        0.20622120        0.00944712        0.00821510        0.00761728        0.00612161        0.01664562
     118         -1.134294        2.000000        0.16477807        0.32448365        0.14497842        0.24133727        0.02089764        0.02433842        0.02151529        0.02427061        0.01914413
     119         -1.129474        2.000000        0.12718205        0.28663016        0.22673659        0.26012293        0.01511524        0.02270348        0.02327869        0.01778669        0.02037885
     120         -1.125909        2.000000        0.20352988        0.16147896        0.07823478        0.22989225        0.02119337        0.00529257        0.01212192        0.00639474        0.01490803
     121         -1.125224        2.000000        0.10687547        0.47531928        0.16351797        0.13177564        0.02430096        0.03683602        0.02549201        0.01679210        0.01827614
     122         -1.124470        2.000000        0.21213209        0.12244397        0.13302201        0.24696815        0.01700900        0.00488620        0.00828707        0.00885217        0.02624497
     123         -1.119116        2.000000        0.12624330        0.13599705        0.01063855        0.16116209        0.03257983        0.00623164        0.00264158        0.00330987        0.03379381
     124         -1.117416        2.000000        0.15662345        0.24888396        0.20936792        0.25235579        0.02669868        0.02357978        0.02857741        0.02487659        0.02897643
     125         -1.114567        2.000000        0.13486236        0.19893064        0.17147847        0.36115071        0.02416464        0.02235450        0.02481316        0.04158444        0.02063164
     126         -1.112757        2.000000        0.28855634        0.26288345        0.14880516        0.17485113        0.02963782        0.02409193        0.03074159        0.01616417        0.02424656
     127         -1.111710        2.000000        0.20862642        0.23566484        0.05578537        0.17348623        0.01583066        0.00361314        0.00897134        0.00228856        0.02893760
     128         -1.107244        2.000000        0.22986406        0.19742559        0.06933594        0.11992069        0.04300106        0.00563907        0.01444819        0.02429886        0.01267745
     129         -1.107176        2.000000        0.34069247        0.24699890        0.11419987        0.17763509        0.02371971        0.02706740        0.02743944        0.01600991        0.02613999
     130         -1.106786        2.000000        0.15857431        0.24162561        0.25653747        0.22571780        0.01795970        0.02719874        0.01811120        0.03086336        0.02336520
     131         -1.103906        2.000000        0.22163571        0.14528390        0.09217146        0.24742285        0.01876430        0.00302493        0.01873914        0.00619213        0.01242191
     132         -1.101573        2.000000        0.28780753        0.29948161        0.17279066        0.14487644        0.01952586        0.01837660        0.01824807        0.02447858        0.01438291
     133         -1.099223        2.000000        0.15076928        0.21779109        0.23610039        0.28486342        0.02112357        0.02449853        0.02584988        0.01975870        0.01922633
     134         -1.092395        2.000000        0.19577522        0.24600879        0.07146073        0.21916458        0.01942499        0.00404281        0.00350842        0.00170794        0.03264751
     135         -1.090563        2.000000        0.10655191        0.29896703        0.12961796        0.32345341        0.03084284        0.01970946        0.02224129        0.03489638        0.03345133
     136         -1.086614        2.000000        0.21997606        0.18129089        0.07718193        0.22099860        0.02220279        0.00666559        0.02021854        0.00584575        0.02062033
     137         -1.084483        2.000000        0.25560884        0.29830930        0.17386647        0.15022191        0.02843969        0.02613773        0.02609825        0.01380579        0.02748848
     138         -1.078929        2.000000        0.07854633        0.43750178        0.15245806        0.20125775        0.02896478        0.02362623        0.01881545        0.02115524        0.02638901
     139         -1.077763        2.000000        0.22978199        0.13979274        0.05827884        0.12777481        0.02615226        0.01187736        0.01684690        0.00626715        0.02622586
     140         -1.075994        2.000000        0.14025259        0.30515435        0.24980014        0.17071743        0.03165576        0.02377114        0.02159653        0.02473721        0.03193085
     141         -1.075123        2.000000        0.17349398        0.19111250        0.12381750        0.23218745        0.01603398        0.00808094        0.01238858        0.00751725        0.02513937
     142         -1.072366        2.000000        0.25318759        0.17545656        0.03006500        0.10241854        0.01531805        0.00561471        0.01143367        0.00871344        0.01543040
     143         -1.071672        2.000000        0.24155958        0.27257803        0.18689855        0.18457889        0.03217363        0.01797506        0.02782364        0.01223710        0.02378963
     144         -1.068221        2.000000        0.26614421        0.22541942        0.17946343        0.20807569        0.02032174        0.03003280        0.02871135        0.02022449        0.02147344