 DBCSR| CPU Multiplication driver                                           BLAS
 DBCSR| Multrec recursion limit                                              512
 DBCSR| Multiplication stack size                                           1000
 DBCSR| Maximum elements for images                                    UNLIMITED
 DBCSR| Multiplicative factor virtual images                                   1
 DBCSR| Use multiplication densification                                       T
 DBCSR| Multiplication size stacks                                             3
 DBCSR| Use memory pool for CPU allocation                                     F
 DBCSR| Number of 3D layers                                               SINGLE
 DBCSR| Use MPI memory allocation                                              F
 DBCSR| Use RMA algorithm                                                      F
 DBCSR| Use Communication thread                                               T
 DBCSR| Communication thread load                                             87
 DBCSR| MPI: My node id                                                        0
 DBCSR| MPI: Number of nodes                                                  12
 DBCSR| OMP: Current number of threads                                         1
 DBCSR| OMP: Max number of threads                                             1
 DBCSR| Split modifier for TAS multiplication algorithm                  1.0E+00


  **** **** ******  **  PROGRAM STARTED AT               2021-06-24 12:33:35.077
 ***** ** ***  *** **   PROGRAM STARTED ON        cpn-p27-23.compute.cbls.ccr.bu
 **    ****   ******    PROGRAM STARTED BY                                ub2053
 ***** **    ** ** **   PROGRAM PROCESS ID                                 24867
  **** **  *******  **  PROGRAM STARTED IN /panfs/panfs.cbls.ccr.buffalo.edu/scr
                                           atch/grp-cyberwksp21/ub2053/cof/conve
                                           rgence_analysis/XYZ/ngrid

 CP2K| version string:                    CP2K version 9.0 (Development Version)
 CP2K| source code revision number:                                  git:36754bb
 CP2K| cp2kflags: omp fftw3 parallel mpi3 scalapack spglib mkl libvori libbqb   
 CP2K| is freely available from                            https://www.cp2k.org/
 CP2K| Program compiled at                          Thu Apr 22 21:44:59 EDT 2021
 CP2K| Program compiled on            cpn-k07-07-02.compute.cbls.ccr.buffalo.edu
 CP2K| Program compiled for                                                local
 CP2K| Data directory path                 /util/academic/cp2k/8.1-sse/cp2k/data
 CP2K| Input file name                                                   cof.inp

 GLOBAL| Force Environment number                                              1
 GLOBAL| Basis set file name                                        BASIS_MOLOPT
 GLOBAL| Potential file name                                           POTENTIAL
 GLOBAL| MM Potential file name                                     MM_POTENTIAL
 GLOBAL| Coordinate file name                                            cof.xyz
 GLOBAL| Method name                                                        CP2K
 GLOBAL| Project name                                                        COF
 GLOBAL| Preferred FFT library                                             FFTW3
 GLOBAL| Preferred diagonalization lib.                                       SL
 GLOBAL| Run type                                                         ENERGY
 GLOBAL| All-to-all communication in single precision                          F
 GLOBAL| FFTs using library dependent lengths                                  T
 GLOBAL| Grid backend                                                       AUTO
 GLOBAL| Global print level                                               MEDIUM
 GLOBAL| MPI I/O enabled                                                       T
 GLOBAL| Total number of message passing processes                            12
 GLOBAL| Number of threads for this process                                    1
 GLOBAL| This output is from process                                           0
 GLOBAL| CPU model name                Intel(R) Xeon(R) CPU E5-2620 v3 @ 2.40GHz
 GLOBAL| CPUID                                                              1000

 MEMORY| system memory details [Kb]
 MEMORY|                        rank 0           min           max       average
 MEMORY| MemTotal            131633840     131633840     131633840     131633840
 MEMORY| MemFree             117659856     117659856     117659856     117659856
 MEMORY| Buffers                  1236          1236          1236          1236
 MEMORY| Cached                8889564       8889564       8889564       8889564
 MEMORY| Slab                   482712        482712        482712        482712
 MEMORY| SReclaimable           391400        391400        391400        391400
 MEMORY| MemLikelyFree       126942056     126942056     126942056     126942056


 *** Fundamental physical constants (SI units) ***

 *** Literature: B. J. Mohr and B. N. Taylor,
 ***             CODATA recommended values of the fundamental physical
 ***             constants: 2006, Web Version 5.1
 ***             http://physics.nist.gov/constants

 Speed of light in vacuum [m/s]                             2.99792458000000E+08
 Magnetic constant or permeability of vacuum [N/A**2]       1.25663706143592E-06
 Electric constant or permittivity of vacuum [F/m]          8.85418781762039E-12
 Planck constant (h) [J*s]                                  6.62606896000000E-34
 Planck constant (h-bar) [J*s]                              1.05457162825177E-34
 Elementary charge [C]                                      1.60217648700000E-19
 Electron mass [kg]                                         9.10938215000000E-31
 Electron g factor [ ]                                     -2.00231930436220E+00
 Proton mass [kg]                                           1.67262163700000E-27
 Fine-structure constant                                    7.29735253760000E-03
 Rydberg constant [1/m]                                     1.09737315685270E+07
 Avogadro constant [1/mol]                                  6.02214179000000E+23
 Boltzmann constant [J/K]                                   1.38065040000000E-23
 Atomic mass unit [kg]                                      1.66053878200000E-27
 Bohr radius [m]                                            5.29177208590000E-11

 *** Conversion factors ***

 [u] -> [a.u.]                                              1.82288848426455E+03
 [Angstrom] -> [Bohr] = [a.u.]                              1.88972613288564E+00
 [a.u.] = [Bohr] -> [Angstrom]                              5.29177208590000E-01
 [a.u.] -> [s]                                              2.41888432650478E-17
 [a.u.] -> [fs]                                             2.41888432650478E-02
 [a.u.] -> [J]                                              4.35974393937059E-18
 [a.u.] -> [N]                                              8.23872205491840E-08
 [a.u.] -> [K]                                              3.15774647902944E+05
 [a.u.] -> [kJ/mol]                                         2.62549961709828E+03
 [a.u.] -> [kcal/mol]                                       6.27509468713739E+02
 [a.u.] -> [Pa]                                             2.94210107994716E+13
 [a.u.] -> [bar]                                            2.94210107994716E+08
 [a.u.] -> [atm]                                            2.90362800883016E+08
 [a.u.] -> [eV]                                             2.72113838565563E+01
 [a.u.] -> [Hz]                                             6.57968392072181E+15
 [a.u.] -> [1/cm] (wave numbers)                            2.19474631370540E+05
 [a.u./Bohr**2] -> [1/cm]                                   5.14048714338585E+03
 

 CELL_TOP| Volume [angstrom^3]:                                     17982.239873
 CELL_TOP| Vector a [angstrom    23.015     0.000     0.000   |a| =    23.015040
 CELL_TOP| Vector b [angstrom   -12.316    20.116     0.000   |b| =    23.586850
 CELL_TOP| Vector c [angstrom    -0.364     0.264    38.841   |c| =    38.843980
 CELL_TOP| Angle (b,c), alpha [degree]:                                89.387500
 CELL_TOP| Angle (a,c), beta  [degree]:                                90.536400
 CELL_TOP| Angle (a,b), gamma [degree]:                               121.478100
 CELL_TOP| Numerically orthorhombic:                                          NO

 GENERATE|  Preliminary Number of Bonds generated:                             0
 GENERATE|  Achieved consistency in connectivity generation.

 CELL| Volume [angstrom^3]:                                         17982.239873
 CELL| Vector a [angstrom]:      23.015     0.000     0.000   |a| =    23.015040
 CELL| Vector b [angstrom]:     -12.316    20.116     0.000   |b| =    23.586850
 CELL| Vector c [angstrom]:      -0.364     0.264    38.841   |c| =    38.843980
 CELL| Angle (b,c), alpha [degree]:                                    89.387500
 CELL| Angle (a,c), beta  [degree]:                                    90.536400
 CELL| Angle (a,b), gamma [degree]:                                   121.478100
 CELL| Numerically orthorhombic:                                              NO

 CELL_REF| Volume [angstrom^3]:                                     17982.239873
 CELL_REF| Vector a [angstrom    23.015     0.000     0.000   |a| =    23.015040
 CELL_REF| Vector b [angstrom   -12.316    20.116     0.000   |b| =    23.586850
 CELL_REF| Vector c [angstrom    -0.364     0.264    38.841   |c| =    38.843980
 CELL_REF| Angle (b,c), alpha [degree]:                                89.387500
 CELL_REF| Angle (a,c), beta  [degree]:                                90.536400
 CELL_REF| Angle (a,b), gamma [degree]:                               121.478100
 CELL_REF| Numerically orthorhombic:                                          NO

 *******************************************************************************
 *******************************************************************************
 **                                                                           **
 **     #####                         ##              ##                      **
 **    ##   ##            ##          ##              ##                      **
 **   ##     ##                       ##            ######                    **
 **   ##     ##  ##   ##  ##   #####  ##  ##   ####   ##    #####    #####    **
 **   ##     ##  ##   ##  ##  ##      ## ##   ##      ##   ##   ##  ##   ##   **
 **   ##  ## ##  ##   ##  ##  ##      ####     ###    ##   ######   ######    **
 **    ##  ###   ##   ##  ##  ##      ## ##      ##   ##   ##       ##        **
 **     #######   #####   ##   #####  ##  ##  ####    ##    #####   ##        **
 **           ##                                                    ##        **
 **                                                                           **
 **                                                ... make the atoms dance   **
 **                                                                           **
 **            Copyright (C) by CP2K developers group (2000-2021)             **
 **                      J. Chem. Phys. 152, 194103 (2020)                    **
 **                                                                           **
 *******************************************************************************

 DFT| Spin restricted Kohn-Sham (RKS) calculation                            RKS
 DFT| Multiplicity                                                             1
 DFT| Number of spin states                                                    1
 DFT| Charge                                                                   0
 DFT| Self-interaction correction (SIC)                                       NO
 DFT| Cutoffs: density                                              1.000000E-10
 DFT|          gradient                                             1.000000E-10
 DFT|          tau                                                  1.000000E-10
 DFT|          cutoff_smoothing_range                               0.000000E+00
 DFT| XC density smoothing                                                  NONE
 DFT| XC derivatives                                              SPLINE2_SMOOTH
 FUNCTIONAL| ROUTINE=NEW
 FUNCTIONAL| PBE:
 FUNCTIONAL| J.P.Perdew, K.Burke, M.Ernzerhof, Phys. Rev. Letter, vol. 77, n 18,
 FUNCTIONAL|  pp. 3865-3868, (1996){spin unpolarized}                           
 vdW POTENTIAL|                                                   Pair Potential
 vdW POTENTIAL|          DFT-D3 (Version 3.1)
 vdW POTENTIAL|          Potential Form: S. Grimme et al, JCP 132: 154104 (2010)
 vdW POTENTIAL|          Zero Damping
 vdW POTENTIAL|          Cutoff Radius [Bohr]:                             20.00
 vdW POTENTIAL|          s6 Scaling Factor:                               1.0000
 vdW POTENTIAL|          sr6 Scaling Factor:                              1.2170
 vdW POTENTIAL|          s8 Scaling Factor:                               0.7220
 vdW POTENTIAL|          Cutoff for CN calculation:                   0.1000E-05

 QS| Method:                                                                 GPW
 QS| Density plane wave grid type                        NON-SPHERICAL FULLSPACE
 QS| Number of grid levels:                                                   12
 QS| Density cutoff [a.u.]:                                                500.0
 QS| Multi grid cutoff [a.u.]: 1) grid level                               500.0
 QS|                           2) grid level                               166.7
 QS|                           3) grid level                                55.6
 QS|                           4) grid level                                18.5
 QS|                           5) grid level                                 6.2
 QS|                           6) grid level                                 2.1
 QS|                           7) grid level                                 0.7
 QS|                           8) grid level                                 0.2
 QS|                           9) grid level                                 0.1
 QS|                          10) grid level                                 0.0
 QS|                          11) grid level                                 0.0
 QS|                          12) grid level                                 0.0
 QS| Grid level progression factor:                                          3.0
 QS| Relative density cutoff [a.u.]:                                        30.0
 QS| Interaction thresholds: eps_pgf_orb:                                1.0E-07
 QS|                         eps_filter_matrix:                          0.0E+00
 QS|                         eps_core_charge:                            1.0E-16
 QS|                         eps_rho_gspace:                             1.0E-14
 QS|                         eps_rho_rspace:                             1.0E-14
 QS|                         eps_gvg_rspace:                             1.0E-07
 QS|                         eps_ppl:                                    1.0E-02
 QS|                         eps_ppnl:                                   1.0E-09


 ATOMIC KIND INFORMATION

  1. Atomic kind: B                                     Number of atoms:       4

     Orbital Basis Set                                        DZVP-MOLOPT-SR-GTH

       Number of orbital shell sets:                                           1
       Number of orbital shells:                                               5
       Number of primitive Cartesian functions:                                4
       Number of Cartesian basis functions:                                   14
       Number of spherical basis functions:                                   13
       Norm type:                                                              2

       Normalised Cartesian orbitals:

                        Set   Shell   Orbital            Exponent    Coefficient

                          1       1    2s                3.053444       0.252402
                                                         0.915484       0.050494
                                                         0.329920      -0.219689
                                                         0.101655      -0.057697

                          1       2    3s                3.053444      -0.889751
                                                         0.915484      -0.125118
                                                         0.329920       0.537314
                                                         0.101655      -0.211019

                          1       3    3px               3.053444      -0.570049
                                                         0.915484      -0.388730
                                                         0.329920      -0.182602
                                                         0.101655      -0.024010
                          1       3    3py               3.053444      -0.570049
                                                         0.915484      -0.388730
                                                         0.329920      -0.182602
                                                         0.101655      -0.024010
                          1       3    3pz               3.053444      -0.570049
                                                         0.915484      -0.388730
                                                         0.329920      -0.182602
                                                         0.101655      -0.024010

                          1       4    4px               3.053444      -0.595374
                                                         0.915484      -0.502823
                                                         0.329920      -0.128778
                                                         0.101655       0.089873
                          1       4    4py               3.053444      -0.595374
                                                         0.915484      -0.502823
                                                         0.329920      -0.128778
                                                         0.101655       0.089873
                          1       4    4pz               3.053444      -0.595374
                                                         0.915484      -0.502823
                                                         0.329920      -0.128778
                                                         0.101655       0.089873

                          1       5    4dx2              3.053444      -0.371712
                                                         0.915484      -0.428539
                                                         0.329920      -0.123001
                                                         0.101655      -0.011638
                          1       5    4dxy              3.053444      -0.643825
                                                         0.915484      -0.742250
                                                         0.329920      -0.213044
                                                         0.101655      -0.020158
                          1       5    4dxz              3.053444      -0.643825
                                                         0.915484      -0.742250
                                                         0.329920      -0.213044
                                                         0.101655      -0.020158
                          1       5    4dy2              3.053444      -0.371712
                                                         0.915484      -0.428539
                                                         0.329920      -0.123001
                                                         0.101655      -0.011638
                          1       5    4dyz              3.053444      -0.643825
                                                         0.915484      -0.742250
                                                         0.329920      -0.213044
                                                         0.101655      -0.020158
                          1       5    4dz2              3.053444      -0.371712
                                                         0.915484      -0.428539
                                                         0.329920      -0.123001
                                                         0.101655      -0.011638

       Atomic covalent radius [Angstrom]:                                  0.820

       Atomic van der Waals radius [Angstrom]:                             1.920

     GTH Potential information for                                    GTH-PBE-q3

       Description:                       Goedecker-Teter-Hutter pseudopotential
                                           Goedecker et al., PRB 54, 1703 (1996)
                                          Hartwigsen et al., PRB 58, 3641 (1998)
                                                      Krack, TCA 114, 145 (2005)

       Gaussian exponent of the core charge distribution:               2.848129
       Electronic configuration (s p d ...):                               2   1

       Parameters of the local part of the GTH pseudopotential:

                          rloc        C1          C2          C3          C4
                        0.418991   -5.859462    0.903756

       Parameters of the non-local part of the GTH pseudopotential:

                   l      r(l)      h(i,j,l)

                   0    0.371320    6.297280
                   1    0.364563

  2. Atomic kind: C                                     Number of atoms:     222

     Orbital Basis Set                                           DZVP-MOLOPT-GTH

       Number of orbital shell sets:                                           1
       Number of orbital shells:                                               5
       Number of primitive Cartesian functions:                                7
       Number of Cartesian basis functions:                                   14
       Number of spherical basis functions:                                   13
       Norm type:                                                              2

       Normalised Cartesian orbitals:

                        Set   Shell   Orbital            Exponent    Coefficient

                          1       1    2s                6.132625      -0.263661
                                                         2.625196      -0.231112
                                                         1.045457       0.042712
                                                         0.478316       0.306085
                                                         0.178617       0.065483
                                                         0.075145       0.000568
                                                         0.030287       0.000417

                          1       2    3s                6.132625       0.131937
                                                         2.625196       0.414269
                                                         1.045457      -0.593590
                                                         0.478316       0.644922
                                                         0.178617       0.069203
                                                         0.075145      -0.145101
                                                         0.030287       0.008247

                          1       3    3px               6.132625       0.562677
                                                         2.625196       0.633910
                                                         1.045457       0.379157
                                                         0.478316       0.235193
                                                         0.178617       0.052379
                                                         0.075145       0.003677
                                                         0.030287       0.000105
                          1       3    3py               6.132625       0.562677
                                                         2.625196       0.633910
                                                         1.045457       0.379157
                                                         0.478316       0.235193
                                                         0.178617       0.052379
                                                         0.075145       0.003677
                                                         0.030287       0.000105
                          1       3    3pz               6.132625       0.562677
                                                         2.625196       0.633910
                                                         1.045457       0.379157
                                                         0.478316       0.235193
                                                         0.178617       0.052379
                                                         0.075145       0.003677
                                                         0.030287       0.000105

                          1       4    4px               6.132625      -0.472364
                                                         2.625196      -0.221326
                                                         1.045457      -0.481781
                                                         0.478316       0.135466
                                                         0.178617       0.072281
                                                         0.075145       0.024920
                                                         0.030287       0.002706
                          1       4    4py               6.132625      -0.472364
                                                         2.625196      -0.221326
                                                         1.045457      -0.481781
                                                         0.478316       0.135466
                                                         0.178617       0.072281
                                                         0.075145       0.024920
                                                         0.030287       0.002706
                          1       4    4pz               6.132625      -0.472364
                                                         2.625196      -0.221326
                                                         1.045457      -0.481781
                                                         0.478316       0.135466
                                                         0.178617       0.072281
                                                         0.075145       0.024920
                                                         0.030287       0.002706

                          1       5    4dx2              6.132625       0.874783
                                                         2.625196       0.375772
                                                         1.045457       0.653959
                                                         0.478316       0.191007
                                                         0.178617       0.018656
                                                         0.075145       0.003649
                                                         0.030287      -0.000011
                          1       5    4dxy              6.132625       1.515169
                                                         2.625196       0.650856
                                                         1.045457       1.132690
                                                         0.478316       0.330834
                                                         0.178617       0.032314
                                                         0.075145       0.006321
                                                         0.030287      -0.000019
                          1       5    4dxz              6.132625       1.515169
                                                         2.625196       0.650856
                                                         1.045457       1.132690
                                                         0.478316       0.330834
                                                         0.178617       0.032314
                                                         0.075145       0.006321
                                                         0.030287      -0.000019
                          1       5    4dy2              6.132625       0.874783
                                                         2.625196       0.375772
                                                         1.045457       0.653959
                                                         0.478316       0.191007
                                                         0.178617       0.018656
                                                         0.075145       0.003649
                                                         0.030287      -0.000011
                          1       5    4dyz              6.132625       1.515169
                                                         2.625196       0.650856
                                                         1.045457       1.132690
                                                         0.478316       0.330834
                                                         0.178617       0.032314
                                                         0.075145       0.006321
                                                         0.030287      -0.000019
                          1       5    4dz2              6.132625       0.874783
                                                         2.625196       0.375772
                                                         1.045457       0.653959
                                                         0.478316       0.191007
                                                         0.178617       0.018656
                                                         0.075145       0.003649
                                                         0.030287      -0.000011

       Atomic covalent radius [Angstrom]:                                  0.770

       Atomic van der Waals radius [Angstrom]:                             1.700

     GTH Potential information for                                    GTH-PBE-q4

       Description:                       Goedecker-Teter-Hutter pseudopotential
                                           Goedecker et al., PRB 54, 1703 (1996)
                                          Hartwigsen et al., PRB 58, 3641 (1998)
                                                      Krack, TCA 114, 145 (2005)

       Gaussian exponent of the core charge distribution:               4.364419
       Electronic configuration (s p d ...):                               2   2

       Parameters of the local part of the GTH pseudopotential:

                          rloc        C1          C2          C3          C4
                        0.338471   -8.803674    1.339211

       Parameters of the non-local part of the GTH pseudopotential:

                   l      r(l)      h(i,j,l)

                   0    0.302576    9.622487
                   1    0.291507

  3. Atomic kind: H                                     Number of atoms:      26

     Orbital Basis Set                                           DZVP-MOLOPT-GTH

       Number of orbital shell sets:                                           1
       Number of orbital shells:                                               3
       Number of primitive Cartesian functions:                                7
       Number of Cartesian basis functions:                                    5
       Number of spherical basis functions:                                    5
       Norm type:                                                              2

       Normalised Cartesian orbitals:

                        Set   Shell   Orbital            Exponent    Coefficient

                          1       1    2s               11.478000       0.129129
                                                         3.700759       0.177012
                                                         1.446884       0.141285
                                                         0.716815       0.245670
                                                         0.247919       0.094768
                                                         0.066918       0.004062
                                                         0.021708      -0.000053

                          1       2    3s               11.478000      -0.079256
                                                         3.700759      -0.152992
                                                         1.446884       0.015066
                                                         0.716815      -0.331234
                                                         0.247919       0.210690
                                                         0.066918       0.058630
                                                         0.021708      -0.003429

                          1       3    3px              11.478000       0.325290
                                                         3.700759       0.187466
                                                         1.446884       0.443300
                                                         0.716815       0.267738
                                                         0.247919       0.088285
                                                         0.066918       0.019092
                                                         0.021708       0.000629
                          1       3    3py              11.478000       0.325290
                                                         3.700759       0.187466
                                                         1.446884       0.443300
                                                         0.716815       0.267738
                                                         0.247919       0.088285
                                                         0.066918       0.019092
                                                         0.021708       0.000629
                          1       3    3pz              11.478000       0.325290
                                                         3.700759       0.187466
                                                         1.446884       0.443300
                                                         0.716815       0.267738
                                                         0.247919       0.088285
                                                         0.066918       0.019092
                                                         0.021708       0.000629

       Atomic covalent radius [Angstrom]:                                  0.320

       Atomic van der Waals radius [Angstrom]:                             1.090

     GTH Potential information for                                    GTH-PBE-q1

       Description:                       Goedecker-Teter-Hutter pseudopotential
                                           Goedecker et al., PRB 54, 1703 (1996)
                                          Hartwigsen et al., PRB 58, 3641 (1998)
                                                      Krack, TCA 114, 145 (2005)

       Gaussian exponent of the core charge distribution:              12.500000
       Electronic configuration (s p d ...):                                   1

       Parameters of the local part of the GTH pseudopotential:

                          rloc        C1          C2          C3          C4
                        0.200000   -4.178900    0.724463

  4. Atomic kind: N                                     Number of atoms:      24

     Orbital Basis Set                                           DZVP-MOLOPT-GTH

       Number of orbital shell sets:                                           1
       Number of orbital shells:                                               5
       Number of primitive Cartesian functions:                                7
       Number of Cartesian basis functions:                                   14
       Number of spherical basis functions:                                   13
       Norm type:                                                              2

       Normalised Cartesian orbitals:

                        Set   Shell   Orbital            Exponent    Coefficient

                          1       1    2s                9.042730      -0.237404
                                                         3.882225      -0.265910
                                                         1.512880       0.102064
                                                         0.586631       0.295369
                                                         0.222851       0.088647
                                                         0.084583       0.003860
                                                         0.039194       0.000722

                          1       2    3s                9.042730       0.259152
                                                         3.882225       0.251432
                                                         1.512880      -0.043896
                                                         0.586631      -0.328079
                                                         0.222851       0.175857
                                                         0.084583       0.069169
                                                         0.039194       0.004207

                          1       3    3px               9.042730       0.822162
                                                         3.882225       0.990771
                                                         1.512880       0.665657
                                                         0.586631       0.321705
                                                         0.222851       0.063706
                                                         0.084583       0.004155
                                                         0.039194      -0.000005
                          1       3    3py               9.042730       0.822162
                                                         3.882225       0.990771
                                                         1.512880       0.665657
                                                         0.586631       0.321705
                                                         0.222851       0.063706
                                                         0.084583       0.004155
                                                         0.039194      -0.000005
                          1       3    3pz               9.042730       0.822162
                                                         3.882225       0.990771
                                                         1.512880       0.665657
                                                         0.586631       0.321705
                                                         0.222851       0.063706
                                                         0.084583       0.004155
                                                         0.039194      -0.000005

                          1       4    4px               9.042730      -0.251449
                                                         3.882225      -0.215479
                                                         1.512880      -0.200519
                                                         0.586631      -0.125283
                                                         0.222851       0.136219
                                                         0.084583       0.034362
                                                         0.039194       0.000879
                          1       4    4py               9.042730      -0.251449
                                                         3.882225      -0.215479
                                                         1.512880      -0.200519
                                                         0.586631      -0.125283
                                                         0.222851       0.136219
                                                         0.084583       0.034362
                                                         0.039194       0.000879
                          1       4    4pz               9.042730      -0.251449
                                                         3.882225      -0.215479
                                                         1.512880      -0.200519
                                                         0.586631      -0.125283
                                                         0.222851       0.136219
                                                         0.084583       0.034362
                                                         0.039194       0.000879

                          1       5    4dx2              9.042730       1.099742
                                                         3.882225       0.532064
                                                         1.512880       0.873643
                                                         0.586631       0.456348
                                                         0.222851       0.017840
                                                         0.084583      -0.000857
                                                         0.039194      -0.000086
                          1       5    4dxy              9.042730       1.904809
                                                         3.882225       0.921562
                                                         1.512880       1.513195
                                                         0.586631       0.790419
                                                         0.222851       0.030900
                                                         0.084583      -0.001484
                                                         0.039194      -0.000150
                          1       5    4dxz              9.042730       1.904809
                                                         3.882225       0.921562
                                                         1.512880       1.513195
                                                         0.586631       0.790419
                                                         0.222851       0.030900
                                                         0.084583      -0.001484
                                                         0.039194      -0.000150
                          1       5    4dy2              9.042730       1.099742
                                                         3.882225       0.532064
                                                         1.512880       0.873643
                                                         0.586631       0.456348
                                                         0.222851       0.017840
                                                         0.084583      -0.000857
                                                         0.039194      -0.000086
                          1       5    4dyz              9.042730       1.904809
                                                         3.882225       0.921562
                                                         1.512880       1.513195
                                                         0.586631       0.790419
                                                         0.222851       0.030900
                                                         0.084583      -0.001484
                                                         0.039194      -0.000150
                          1       5    4dz2              9.042730       1.099742
                                                         3.882225       0.532064
                                                         1.512880       0.873643
                                                         0.586631       0.456348
                                                         0.222851       0.017840
                                                         0.084583      -0.000857
                                                         0.039194      -0.000086

       Atomic covalent radius [Angstrom]:                                  0.750

       Atomic van der Waals radius [Angstrom]:                             1.550

     GTH Potential information for                                    GTH-PBE-q5

       Description:                       Goedecker-Teter-Hutter pseudopotential
                                           Goedecker et al., PRB 54, 1703 (1996)
                                          Hartwigsen et al., PRB 58, 3641 (1998)
                                                      Krack, TCA 114, 145 (2005)

       Gaussian exponent of the core charge distribution:               6.208322
       Electronic configuration (s p d ...):                               2   3

       Parameters of the local part of the GTH pseudopotential:

                          rloc        C1          C2          C3          C4
                        0.283791  -12.415226    1.868096

       Parameters of the non-local part of the GTH pseudopotential:

                   l      r(l)      h(i,j,l)

                   0    0.255405   13.630263
                   1    0.245495

  5. Atomic kind: S                                     Number of atoms:      12

     Orbital Basis Set                                           DZVP-MOLOPT-GTH

       Number of orbital shell sets:                                           1
       Number of orbital shells:                                               5
       Number of primitive Cartesian functions:                                6
       Number of Cartesian basis functions:                                   14
       Number of spherical basis functions:                                   13
       Norm type:                                                              2

       Normalised Cartesian orbitals:

                        Set   Shell   Orbital            Exponent    Coefficient

                          1       1    2s                3.817591       0.157264
                                                         2.362752      -0.510082
                                                         0.861004      -0.067545
                                                         0.417525       0.341507
                                                         0.181514       0.065073
                                                         0.070571       0.000166

                          1       2    3s                3.817591      -0.204385
                                                         2.362752       0.558740
                                                         0.861004       0.301625
                                                         0.417525      -0.627222
                                                         0.181514       0.190853
                                                         0.070571       0.080605

                          1       3    3px               3.817591      -0.172386
                                                         2.362752      -0.175607
                                                         0.861004       0.224215
                                                         0.417525       0.286358
                                                         0.181514       0.049699
                                                         0.070571       0.001588
                          1       3    3py               3.817591      -0.172386
                                                         2.362752      -0.175607
                                                         0.861004       0.224215
                                                         0.417525       0.286358
                                                         0.181514       0.049699
                                                         0.070571       0.001588
                          1       3    3pz               3.817591      -0.172386
                                                         2.362752      -0.175607
                                                         0.861004       0.224215
                                                         0.417525       0.286358
                                                         0.181514       0.049699
                                                         0.070571       0.001588

                          1       4    4px               3.817591       0.011373
                                                         2.362752       0.235342
                                                         0.861004      -0.175793
                                                         0.417525      -0.223923
                                                         0.181514       0.115877
                                                         0.070571       0.033489
                          1       4    4py               3.817591       0.011373
                                                         2.362752       0.235342
                                                         0.861004      -0.175793
                                                         0.417525      -0.223923
                                                         0.181514       0.115877
                                                         0.070571       0.033489
                          1       4    4pz               3.817591       0.011373
                                                         2.362752       0.235342
                                                         0.861004      -0.175793
                                                         0.417525      -0.223923
                                                         0.181514       0.115877
                                                         0.070571       0.033489

                          1       5    4dx2              3.817591       0.133631
                                                         2.362752       0.806297
                                                         0.861004       0.453606
                                                         0.417525       0.175089
                                                         0.181514       0.017666
                                                         0.070571      -0.000330
                          1       5    4dxy              3.817591       0.231456
                                                         2.362752       1.396548
                                                         0.861004       0.785669
                                                         0.417525       0.303263
                                                         0.181514       0.030598
                                                         0.070571      -0.000571
                          1       5    4dxz              3.817591       0.231456
                                                         2.362752       1.396548
                                                         0.861004       0.785669
                                                         0.417525       0.303263
                                                         0.181514       0.030598
                                                         0.070571      -0.000571
                          1       5    4dy2              3.817591       0.133631
                                                         2.362752       0.806297
                                                         0.861004       0.453606
                                                         0.417525       0.175089
                                                         0.181514       0.017666
                                                         0.070571      -0.000330
                          1       5    4dyz              3.817591       0.231456
                                                         2.362752       1.396548
                                                         0.861004       0.785669
                                                         0.417525       0.303263
                                                         0.181514       0.030598
                                                         0.070571      -0.000571
                          1       5    4dz2              3.817591       0.133631
                                                         2.362752       0.806297
                                                         0.861004       0.453606
                                                         0.417525       0.175089
                                                         0.181514       0.017666
                                                         0.070571      -0.000330

       Atomic covalent radius [Angstrom]:                                  1.020

       Atomic van der Waals radius [Angstrom]:                             1.800

     GTH Potential information for                                    GTH-PBE-q6

       Description:                       Goedecker-Teter-Hutter pseudopotential
                                           Goedecker et al., PRB 54, 1703 (1996)
                                          Hartwigsen et al., PRB 58, 3641 (1998)
                                                      Krack, TCA 114, 145 (2005)

       Gaussian exponent of the core charge distribution:               2.834467
       Electronic configuration (s p d ...):                               2   4

       Parameters of the local part of the GTH pseudopotential:

                          rloc        C1          C2          C3          C4
                        0.420000   -5.986260

       Parameters of the non-local part of the GTH pseudopotential:

                   l      r(l)      h(i,j,l)

                   0    0.364820   13.143544   -4.241830
                                   -4.241830    5.476180
                   1    0.409480    3.700891


 MOLECULE KIND INFORMATION


 All atoms are their own molecule, skipping detailed information


 TOTAL NUMBERS AND MAXIMUM NUMBERS

  Total number of            - Atomic kinds:                                   5
                             - Atoms:                                        288
                             - Shell sets:                                   288
                             - Shells:                                      1388
                             - Primitive Cartesian functions:               1992
                             - Cartesian basis functions:                   3798
                             - Spherical basis functions:                   3536

  Maximum angular momentum of- Orbital basis functions:                        2
                             - Local part of the GTH pseudopotential:          2
                             - Non-local part of the GTH pseudopotential:      2


 MODULE QUICKSTEP:  ATOMIC COORDINATES IN angstrom

  Atom  Kind  Element       X           Y           Z          Z(eff)       Mass

       1     1 B    5    4.022776    8.876951   22.331582      3.0000      10.8110
       2     1 B    5    4.131949    8.782207    7.233335      3.0000      10.8110
       3     1 B    5   15.704746    2.032869   12.640890      3.0000      10.8110
       4     1 B    5   15.624914    2.108214   16.950397      3.0000      10.8110
       5     2 C    6    3.061918    6.989448   20.991333      4.0000      12.0107
       6     2 C    6    1.841869    6.776989   20.234777      4.0000      12.0107
       7     2 C    6    6.755321    6.753735   21.153885      4.0000      12.0107
       8     2 C    6    5.333593    7.005416   21.324486      4.0000      12.0107
       9     2 C    6   -0.075227    8.143587   19.530223      4.0000      12.0107
      10     2 C    6    1.088566    8.001518   20.281619      4.0000      12.0107
      11     2 C    6    7.469502    5.569328   21.020885      4.0000      12.0107
      12     2 C    6    1.854935    8.951133   21.073722      4.0000      12.0107
      13     2 C    6    1.417167    5.708665   19.450170      4.0000      12.0107
      14     2 C    6    4.094881    8.645834    4.460975      4.0000      12.0107
      15     2 C    6    3.913066    8.777976   23.881666      4.0000      12.0107
      16     2 C    6    4.065820    8.663818    5.682421      4.0000      12.0107
      17     2 C    6    3.884006    8.795959   25.103112      4.0000      12.0107
      18     2 C    6    5.434956    6.914443    8.253912      4.0000      12.0107
      19     2 C    6    1.184558    7.895482    9.259694      4.0000      12.0107
      20     2 C    6    1.936435    6.671043    9.306171      4.0000      12.0107
      21     2 C    6    1.509055    5.601838   10.089106      4.0000      12.0107
      22     2 C    6    0.019997    8.038674   10.009233      4.0000      12.0107
      23     2 C    6   -0.384338    6.975224   10.820290      4.0000      12.0107
      24     2 C    6    0.351894    5.761967   10.855018      4.0000      12.0107
      25     2 C    6    3.160176    6.886991    8.555367      4.0000      12.0107
      26     2 C    6    1.952432    8.847720    8.474139      4.0000      12.0107
      27     2 C    6    7.570845    5.480060    8.553324      4.0000      12.0107
      28     2 C    6    6.856074    6.664711    8.428254      4.0000      12.0107
      29     2 C    6   -2.584342    5.685360   11.787070      4.0000      12.0107
      30     2 C    6  -10.653217   19.923778   12.612491      4.0000      12.0107
      31     2 C    6    4.193424    0.114648   11.346753      4.0000      12.0107
      32     2 C    6    3.485665    1.242382   11.764988      4.0000      12.0107
      33     2 C    6   -1.855367    4.469293   11.802797      4.0000      12.0107
      34     2 C    6  -11.298301   19.596574   13.872606      4.0000      12.0107
      35     2 C    6    4.186011    2.347191   12.393118      4.0000      12.0107
      36     2 C    6  -10.103886   17.699081   13.153701      4.0000      12.0107
      37     2 C    6   -6.345149   18.784560   11.854517      4.0000      12.0107
      38     2 C    6    2.100199    2.092373   13.456532      4.0000      12.0107
      39     2 C    6    3.329188    2.871372   13.445205      4.0000      12.0107
      40     2 C    6   -7.575151   18.008061   11.864450      4.0000      12.0107
      41     2 C    6   -8.673941   18.903229   11.544909      4.0000      12.0107
      42     2 C    6   -9.915289   18.751157   12.168935      4.0000      12.0107
      43     2 C    6   -7.756334   16.996401   12.811910      4.0000      12.0107
      44     2 C    6    2.196416    1.087031   12.412263      4.0000      12.0107
      45     2 C    6    6.308572    1.104010   12.137327      4.0000      12.0107
      46     2 C    6   -6.685611   20.158916   11.529963      4.0000      12.0107
      47     2 C    6    5.571893    2.277955   12.579235      4.0000      12.0107
      48     2 C    6   -5.341576   18.520906   12.791913      4.0000      12.0107
      49     2 C    6   -9.044699   16.840345   13.469488      4.0000      12.0107
      50     2 C    6    4.293466    2.702383   16.886744      4.0000      12.0107
      51     2 C    6   -4.943876   17.921175   15.029945      4.0000      12.0107
      52     2 C    6    3.566496    6.541874   15.537371      4.0000      12.0107
      53     2 C    6    3.249711    2.974394   15.911331      4.0000      12.0107
      54     2 C    6  -10.721244   17.863615   15.538793      4.0000      12.0107
      55     2 C    6  -10.815620   18.867118   16.586193      4.0000      12.0107
      56     2 C    6    2.065412    2.227882   15.920713      4.0000      12.0107
      57     2 C    6    1.477893    1.778075   14.668906      4.0000      12.0107
      58     2 C    6   -5.530547   17.470099   13.778742      4.0000      12.0107
      59     2 C    6    4.813095    6.365699   14.809686      4.0000      12.0107
      60     2 C    6   -9.620766   16.969423   15.867790      4.0000      12.0107
      61     2 C    6  -11.141779   20.190279   16.264234      4.0000      12.0107
      62     2 C    6  -10.958675   18.221562   14.207608      4.0000      12.0107
      63     2 C    6    6.024478    6.757998   15.387631      4.0000      12.0107
      64     2 C    6    0.927473    0.447412   14.880842      4.0000      12.0107
      65     2 C    6    1.876779    1.175139   16.905670      4.0000      12.0107
      66     2 C    6   -8.798376   16.467913   14.852633      4.0000      12.0107
      67     2 C    6   -6.714136   16.723113   13.788092      4.0000      12.0107
      68     2 C    6   -7.358709   16.395872   15.049484      4.0000      12.0107
      69     2 C    6   -6.794222   16.829044   16.253742      4.0000      12.0107
      70     2 C    6   -5.564179   17.606266   16.243647      4.0000      12.0107
      71     2 C    6    3.894490    3.297320   14.649833      4.0000      12.0107
      72     2 C    6   -7.656004   19.580063   18.357490      4.0000      12.0107
      73     2 C    6    2.882889    0.909909   17.839333      4.0000      12.0107
      74     2 C    6   -5.657494   18.609533   17.290935      4.0000      12.0107
      75     2 C    6   -7.648727   17.350213   17.307465      4.0000      12.0107
      76     2 C    6   -0.477263    7.078955   18.719733      4.0000      12.0107
      77     2 C    6   -2.676104    5.780938   17.765401      4.0000      12.0107
      78     2 C    6   -1.945649    4.565633   17.754841      4.0000      12.0107
      79     2 C    6   -9.093316   19.652764   18.163451      4.0000      12.0107
      80     2 C    6    0.259965    5.866607   18.684963      4.0000      12.0107
      81     2 C    6    4.112698    1.687708   17.831019      4.0000      12.0107
      82     2 C    6    5.210726    0.792705   18.149004      4.0000      12.0107
      83     2 C    6   -6.946103   18.451034   17.944878      4.0000      12.0107
      84     2 C    6   -9.771679   18.592942   17.559749      4.0000      12.0107
      85     2 C    6   -9.034065   17.418916   17.119002      4.0000      12.0107
      86     2 C    6    2.615055   13.515829   21.261669      4.0000      12.0107
      87     2 C    6    2.917267   10.946891   21.479789      4.0000      12.0107
      88     2 C    6    3.339646   12.333858   21.355932      4.0000      12.0107
      89     2 C    6    3.010853   10.848935    8.084532      4.0000      12.0107
      90     2 C    6    3.430201   12.234103    8.234563      4.0000      12.0107
      91     2 C    6    2.704693   13.414241    8.341545      4.0000      12.0107
      92     2 C    6    2.763037    7.969110   12.355904      4.0000      12.0107
      93     2 C    6    2.123399   10.223877   12.152684      4.0000      12.0107
      94     2 C    6    5.116084    8.312939   11.680259      4.0000      12.0107
      95     2 C    6    1.896461   11.403610   12.867976      4.0000      12.0107
      96     2 C    6    1.748113    8.941298   12.727246      4.0000      12.0107
      97     2 C    6    3.149074    6.978072   13.263741      4.0000      12.0107
      98     2 C    6    5.519031    7.284776   12.627487      4.0000      12.0107
      99     2 C    6    3.763944    8.649013   11.549567      4.0000      12.0107
     100     2 C    6    3.369139   10.043408   11.424928      4.0000      12.0107
     101     2 C    6    4.555219    6.632671   13.403882      4.0000      12.0107
     102     2 C    6    1.157831    8.885812   13.994713      4.0000      12.0107
     103     2 C    6    1.285685   11.347656   14.187136      4.0000      12.0107
     104     2 C    6    1.918202   12.359199   15.018520      4.0000      12.0107
     105     2 C    6    6.039625    7.345633   16.717909      4.0000      12.0107
     106     2 C    6    1.561241    7.857218   14.940242      4.0000      12.0107
     107     2 C    6    0.923715   10.114278   14.739317      4.0000      12.0107
     108     2 C    6    2.537241    6.921147   14.582082      4.0000      12.0107
     109     2 C    6    1.181939    9.844653   16.145347      4.0000      12.0107
     110     2 C    6    1.578456    8.450466   16.267745      4.0000      12.0107
     111     2 C    6    3.581759    7.109595   16.815600      4.0000      12.0107
     112     2 C    6    3.201396    9.096582   18.015534      4.0000      12.0107
     113     2 C    6    2.165417   12.100516   16.371375      4.0000      12.0107
     114     2 C    6    2.820601   10.436739   17.898469      4.0000      12.0107
     115     2 C    6    1.790720   10.818515   16.945846      4.0000      12.0107
     116     2 C    6    4.841268    7.518268   17.418765      4.0000      12.0107
     117     2 C    6    2.570292    8.085894   17.182914      4.0000      12.0107
     118     2 C    6    4.605200    8.746576   18.162099      4.0000      12.0107
     119     2 C    6    3.829522   11.482387   17.916867      4.0000      12.0107
     120     2 C    6    8.825560    8.074446   21.160874      4.0000      12.0107
     121     2 C    6    9.542209    6.871813   21.091393      4.0000      12.0107
     122     2 C    6    7.437520    8.015914   21.287414      4.0000      12.0107
     123     2 C    6   11.109312    4.286651   20.351002      4.0000      12.0107
     124     2 C    6    6.420594    9.022379   21.595357      4.0000      12.0107
     125     2 C    6   11.574996    3.132023   19.725596      4.0000      12.0107
     126     2 C    6    8.863376    5.627024   21.095480      4.0000      12.0107
     127     2 C    6   11.786161    5.525664   20.200117      4.0000      12.0107
     128     2 C    6    6.518425    8.934895    8.000142      4.0000      12.0107
     129     2 C    6    8.923409    7.989619    8.426954      4.0000      12.0107
     130     2 C    6    7.535735    7.929286    8.303465      4.0000      12.0107
     131     2 C    6    9.640715    6.787200    8.486861      4.0000      12.0107
     132     2 C    6    8.964277    5.541342    8.477691      4.0000      12.0107
     133     2 C    6   11.679086    3.049002    9.831466      4.0000      12.0107
     134     2 C    6   12.824369    3.139339   10.609964      4.0000      12.0107
     135     2 C    6   11.886249    5.443419    9.364078      4.0000      12.0107
     136     2 C    6   13.024432    5.542320   10.174496      4.0000      12.0107
     137     2 C    6   11.212518    4.204213    9.208546      4.0000      12.0107
     138     2 C    6   18.144191    2.155254   12.021612      4.0000      12.0107
     139     2 C    6   14.709405    4.100651   11.568832      4.0000      12.0107
     140     2 C    6   19.110285    3.235948   11.905765      4.0000      12.0107
     141     2 C    6   16.959669    4.125357   12.013263      4.0000      12.0107
     142     2 C    6   13.619152    2.107887   11.238600      4.0000      12.0107
     143     2 C    6   18.370603    4.468600   11.898177      4.0000      12.0107
     144     2 C    6   20.498464    3.237542   11.807966      4.0000      12.0107
     145     2 C    6   19.032132    5.687600   11.784021      4.0000      12.0107
     146     2 C    6   17.067616    0.184371   11.571512      4.0000      12.0107
     147     2 C    6    7.351665    0.829520   13.111439      4.0000      12.0107
     148     2 C    6   14.798773    0.149603   11.235821      4.0000      12.0107
     149     2 C    6    7.258562    1.833443   14.159739      4.0000      12.0107
     150     2 C    6    6.157965    2.726458   13.831180      4.0000      12.0107
     151     2 C    6   13.502748    4.388624   10.800264      4.0000      12.0107
     152     2 C    6   -4.639604   19.622205   13.433162      4.0000      12.0107
     153     2 C    6   15.475884    1.982084   15.405281      4.0000      12.0107
     154     2 C    6   15.511965    1.948133   14.183969      4.0000      12.0107
     155     2 C    6    6.641957    1.999656   16.545201      4.0000      12.0107
     156     2 C    6   -4.393575   19.250337   14.816612      4.0000      12.0107
     157     2 C    6   -4.483054   20.216420   15.825240      4.0000      12.0107
     158     2 C    6    7.495932    1.476212   15.491211      4.0000      12.0107
     159     2 C    6    5.582070    2.858444   16.229409      4.0000      12.0107
     160     2 C    6    5.334358    3.225303   14.845783      4.0000      12.0107
     161     2 C    6   14.612274    4.182922   17.997673      4.0000      12.0107
     162     2 C    6   18.940103    5.779573   17.778811      4.0000      12.0107
     163     2 C    6   18.057441    2.243206   17.581251      4.0000      12.0107
     164     2 C    6   13.524155    2.189461   18.330805      4.0000      12.0107
     165     2 C    6   12.924368    5.623946   19.388895      4.0000      12.0107
     166     2 C    6   16.867876    4.210621   17.573944      4.0000      12.0107
     167     2 C    6   12.722131    3.222228   18.948704      4.0000      12.0107
     168     2 C    6   20.410830    3.332268   17.769064      4.0000      12.0107
     169     2 C    6   13.400464    4.471547   18.759051      4.0000      12.0107
     170     2 C    6   19.022050    3.326508   17.682402      4.0000      12.0107
     171     2 C    6   18.279188    4.558391   17.681966      4.0000      12.0107
     172     2 C    6   16.984201    0.272296   18.040383      4.0000      12.0107
     173     2 C    6   14.713158    0.236211   18.365381      4.0000      12.0107
     174     2 C    6    6.452011    0.946367   17.528227      4.0000      12.0107
     175     2 C    6   -5.127579   19.888841   17.085819      4.0000      12.0107
     176     2 C    6    4.567785   17.338813   20.333831      4.0000      12.0107
     177     2 C    6    3.313449   14.725461   21.306863      4.0000      12.0107
     178     2 C    6    4.730047   14.751758   21.268286      4.0000      12.0107
     179     2 C    6    5.218467   10.981596   21.664504      4.0000      12.0107
     180     2 C    6    4.778346   12.356185   21.436531      4.0000      12.0107
     181     2 C    6    3.157792   17.314875   20.494094      4.0000      12.0107
     182     2 C    6    5.467359   13.561230   21.309437      4.0000      12.0107
     183     2 C    6    2.340358   18.233965   19.838109      4.0000      12.0107
     184     2 C    6    5.174346   18.275890   19.489223      4.0000      12.0107
     185     2 C    6    5.311946   10.888232    7.923518      4.0000      12.0107
     186     2 C    6    5.557130   13.460868    8.319815      4.0000      12.0107
     187     2 C    6    4.868934   12.258017    8.169092      4.0000      12.0107
     188     2 C    6    3.402847   14.624748    8.314245      4.0000      12.0107
     189     2 C    6    4.819202   14.650820    8.363850      4.0000      12.0107
     190     2 C    6    2.427995   18.142927    9.769907      4.0000      12.0107
     191     2 C    6    3.245069   17.218319    9.121900      4.0000      12.0107
     192     2 C    6    4.655228   17.242776    9.286482      4.0000      12.0107
     193     2 C    6    5.260434   18.186128   10.125075      4.0000      12.0107
     194     2 C    6    3.029027   19.095753   10.582612      4.0000      12.0107
     195     2 C    6    4.449691   19.117927   10.776126      4.0000      12.0107
     196     2 C    6    6.375964   11.714212   12.409917      4.0000      12.0107
     197     2 C    6    6.125798    9.360389   11.695644      4.0000      12.0107
     198     2 C    6    5.744454   10.701768   11.578079      4.0000      12.0107
     199     2 C    6    7.152494    8.978052   12.652809      4.0000      12.0107
     200     2 C    6    6.778323    7.695637   13.228206      4.0000      12.0107
     201     2 C    6    5.362241   12.688368   12.783520      4.0000      12.0107
     202     2 C    6    7.759047    9.951875   13.453582      4.0000      12.0107
     203     2 C    6    7.362901   11.345207   13.330412      4.0000      12.0107
     204     2 C    6    4.339890   11.050648   11.437216      4.0000      12.0107
     205     2 C    6    2.906084   12.450433   12.883875      4.0000      12.0107
     206     2 C    6    4.103595   12.278842   12.181117      4.0000      12.0107
     207     2 C    6    4.130743   13.436081   14.791822      4.0000      12.0107
     208     2 C    6    5.375427   13.255677   14.063102      4.0000      12.0107
     209     2 C    6    7.376747   11.935864   14.659036      4.0000      12.0107
     210     2 C    6    2.919890   13.040051   14.213554      4.0000      12.0107
     211     2 C    6    7.657847    8.448382   15.413118      4.0000      12.0107
     212     2 C    6    7.780390   10.907638   15.604077      4.0000      12.0107
     213     2 C    6    7.049528    8.392734   16.733294      4.0000      12.0107
     214     2 C    6    6.402611   12.872928   15.018734      4.0000      12.0107
     215     2 C    6    8.016595    9.681493   14.859180      4.0000      12.0107
     216     2 C    6    4.388148   13.166853   16.197824      4.0000      12.0107
     217     2 C    6    7.025393    7.436698   14.581584      4.0000      12.0107
     218     2 C    6    6.182768   11.829679   17.248729      4.0000      12.0107
     219     2 C    6    4.364142   19.205807   18.835163      4.0000      12.0107
     220     2 C    6    3.424774   12.512297   16.972950      4.0000      12.0107
     221     2 C    6    2.942896   19.184648   19.024514      4.0000      12.0107
     222     2 C    6    5.793292   12.818436   16.338096      4.0000      12.0107
     223     2 C    6    7.196184   10.855590   16.874450      4.0000      12.0107
     224     2 C    6    5.181564   11.147949   18.053619      4.0000      12.0107
     225     2 C    6    5.577012    9.753629   18.178434      4.0000      12.0107
     226     2 C    6    6.823699    9.573112   17.450536      4.0000      12.0107
     227     3 H    1    6.958721    4.609302   20.953103      1.0000       1.0079
     228     3 H    1   -0.644248    9.073239   19.546683      1.0000       1.0079
     229     3 H    1    1.986856    4.779899   19.412949      1.0000       1.0079
     230     3 H    1   -0.547398    8.969092    9.991102      1.0000       1.0079
     231     3 H    1    2.079164    4.673278   10.128620      1.0000       1.0079
     232     3 H    1    7.061283    4.519100    8.614322      1.0000       1.0079
     233     3 H    1    1.525513   13.506255   21.231127      1.0000       1.0079
     234     3 H    1    1.614887   13.404537    8.363021      1.0000       1.0079
     235     3 H    1    9.349903    9.030467   21.183879      1.0000       1.0079
     236     3 H    1   11.059714    2.180579   19.857395      1.0000       1.0079
     237     3 H    1    9.447432    8.945752    8.407611      1.0000       1.0079
     238     3 H    1   11.165954    2.096826    9.697047      1.0000       1.0079
     239     3 H    1   13.538104    6.497197   10.288407      1.0000       1.0079
     240     3 H    1   21.062444    2.304798   11.784820      1.0000       1.0079
     241     3 H    1   18.480361    6.626739   11.741834      1.0000       1.0079
     242     3 H    1   18.386709    6.718002   17.816013      1.0000       1.0079
     243     3 H    1   20.977102    2.401055   17.795766      1.0000       1.0079
     244     3 H    1   13.442302    6.577103   19.279719      1.0000       1.0079
     245     3 H    1    6.557391   13.584949   21.296334      1.0000       1.0079
     246     3 H    1    1.259352   18.216952   19.976443      1.0000       1.0079
     247     3 H    1    6.257902   18.294681   19.370920      1.0000       1.0079
     248     3 H    1    6.647166   13.484746    8.342037      1.0000       1.0079
     249     3 H    1    6.343826   18.205881   10.245360      1.0000       1.0079
     250     3 H    1    1.347525   18.128700    9.627170      1.0000       1.0079
     251     4 N    7    4.230024    6.317008   20.982102      5.0000      14.0067
     252     4 N    7    2.925129    8.235699   21.541345      5.0000      14.0067
     253     4 N    7    5.269369    8.299828   21.745672      5.0000      14.0067
     254     4 N    7    5.369061    8.212154    7.845633      5.0000      14.0067
     255     4 N    7    3.024885    8.135421    8.007205      5.0000      14.0067
     256     4 N    7    4.330021    6.218324    8.575411      5.0000      14.0067
     257     4 N    7    1.786166   10.295962   21.149602      5.0000      14.0067
     258     4 N    7    4.056697   10.278182   21.815779      5.0000      14.0067
     259     4 N    7    4.152773   10.185826    7.744945      5.0000      14.0067
     260     4 N    7    1.880826   10.193086    8.406357      5.0000      14.0067
     261     4 N    7   16.947280    2.777463   12.243034      5.0000      14.0067
     262     4 N    7   14.625296    2.767051   11.888268      5.0000      14.0067
     263     4 N    7   15.847608    0.725276   11.901106      5.0000      14.0067
     264     4 N    7   15.840492    4.813459   11.726229      5.0000      14.0067
     265     4 N    7   18.227586    0.845548   11.734964      5.0000      14.0067
     266     4 N    7   13.644252    0.788992   10.991348      5.0000      14.0067
     267     4 N    7   14.531852    2.846937   17.680577      5.0000      14.0067
     268     4 N    7   15.764999    0.811540   17.707418      5.0000      14.0067
     269     4 N    7   16.859228    2.861129   17.357797      5.0000      14.0067
     270     4 N    7   13.553480    0.872873   18.592724      5.0000      14.0067
     271     4 N    7   18.143418    0.934729   17.875830      5.0000      14.0067
     272     4 N    7   15.743618    4.897017   17.847438      5.0000      14.0067
     273     4 N    7    6.420458   10.370811   21.612084      5.0000      14.0067
     274     4 N    7    6.515155   10.282679    7.986940      5.0000      14.0067
     275     5 S   16   -1.757697    7.233170   11.884557      6.0000      32.0650
     276     5 S   16   -0.102892    4.459247   11.941622      6.0000      32.0650
     277     5 S   16   -1.852939    7.330407   17.655477      6.0000      32.0650
     278     5 S   16   -0.194300    4.558994   17.603467      6.0000      32.0650
     279     5 S   16    9.709373    4.119937   21.390385      6.0000      32.0650
     280     5 S   16   11.302122    6.942229   21.130976      6.0000      32.0650
     281     5 S   16    9.812003    4.038244    8.170188      6.0000      32.0650
     282     5 S   16   11.398949    6.861597    8.438033      6.0000      32.0650
     283     5 S   16    2.382656   16.186207   21.587460      6.0000      32.0650
     284     5 S   16    5.604392   16.280158   21.287947      6.0000      32.0650
     285     5 S   16    2.471775   16.084905    8.032248      6.0000      32.0650
     286     5 S   16    5.696513   16.176839    8.346637      6.0000      32.0650
     287     3 H    1    4.120567    8.629939    3.381397      1.0000       1.0079
     288     3 H    1    3.858321    8.811853   26.182690      1.0000       1.0079




 SCF PARAMETERS         Density guess:                                    ATOMIC
[...]
 flops  1776 x   495 x   592           5204390400     100.0%      0.0%      0.0%
 flops  1768 x   480 x    96           5214044160     100.0%      0.0%      0.0%
 flops  1760 x   512 x   592           5334630400     100.0%      0.0%      0.0%
 flops  1776 x   512 x   592           5383127040     100.0%      0.0%      0.0%
 flops  1768 x   495 x   576           6049105920     100.0%      0.0%      0.0%
 flops  1768 x   512 x   576           6256852992     100.0%      0.0%      0.0%
 flops  1768 x    97 x   592           6497640448     100.0%      0.0%      0.0%
 flops  1455 x   480 x   584           6525849600     100.0%      0.0%      0.0%
 flops  1472 x   480 x   584           6602096640     100.0%      0.0%      0.0%
 flops   289 x    96 x   592           6832570368     100.0%      0.0%      0.0%
 flops  1760 x   576 x   584           7104430080     100.0%      0.0%      0.0%
 flops  1776 x   576 x   584           7169015808     100.0%      0.0%      0.0%
 flops   320 x    96 x   592           7565475840     100.0%      0.0%      0.0%
 flops  1760 x   480 x   584           7893811200     100.0%      0.0%      0.0%
 flops  1776 x   480 x   584           7965573120     100.0%      0.0%      0.0%
 flops  1768 x   480 x   592           8038318080     100.0%      0.0%      0.0%
 flops  1760 x   480 x   608           8218214400     100.0%      0.0%      0.0%
 flops  1776 x   480 x   608           8292925440     100.0%      0.0%      0.0%
 flops  1768 x   128 x   592           8574205952     100.0%      0.0%      0.0%
 flops    13 x    13 x    96           8937996288     100.0%      0.0%      0.0%
 flops  1760 x   608 x   592          10135797760     100.0%      0.0%      0.0%
 flops  1776 x   608 x   592          10227941376     100.0%      0.0%      0.0%
 flops  1760 x   480 x   576          11678515200     100.0%      0.0%      0.0%
 flops  1776 x   480 x   576          11784683520     100.0%      0.0%      0.0%
 flops  1768 x    96 x   584          12687507456     100.0%      0.0%      0.0%
 flops  1455 x   480 x   592          13230489600     100.0%      0.0%      0.0%
 flops  1472 x   480 x   592          13385072640     100.0%      0.0%      0.0%
 flops  1760 x   576 x   592          14403502080     100.0%      0.0%      0.0%
 flops  1776 x   576 x   592          14534443008     100.0%      0.0%      0.0%
 flops  1768 x   480 x   608          16511139840     100.0%      0.0%      0.0%
 flops    13 x    32 x     5          18901392640     100.0%      0.0%      0.0%
 flops     5 x    32 x    13          18901392640     100.0%      0.0%      0.0%
 flops  1760 x   480 x   592          20004864000     100.0%      0.0%      0.0%
 flops  1776 x   480 x   592          20186726400     100.0%      0.0%      0.0%
 flops  1768 x   480 x   576          23463198720     100.0%      0.0%      0.0%
 flops  1768 x    96 x   592          25722617856     100.0%      0.0%      0.0%
 flops    13 x    32 x    13         494913487744     100.0%      0.0%      0.0%
 flops inhomo. stacks                           0       0.0%      0.0%      0.0%
 flops total                         1.046844E+12     100.0%      0.0%      0.0%
 flops max/rank                     97.433652E+09     100.0%      0.0%      0.0%
 matmuls inhomo. stacks                         0       0.0%      0.0%      0.0%
 matmuls total                           57477768     100.0%      0.0%      0.0%
 number of processed stacks                 65404     100.0%      0.0%      0.0%
 average stack size                                   878.8       0.0       0.0
 marketing flops                     1.420691E+12
 -------------------------------------------------------------------------------
 # multiplications                             54
 max memory usage/rank               7.840240E+09
 # max total images/rank                        3
 # max 3D layers                                1
 # MPI messages exchanged                    5184
 MPI messages size (bytes):
  total size                        19.115756E+09
  min size                           0.000000E+00
  max size                           8.638464E+06
  average size                       3.687453E+06
 MPI breakdown and total messages size (bytes):
             size <=      128                 306                        0
       128 < size <=     8192                   0                        0
      8192 < size <=    32768                   0                        0
     32768 < size <=   131072                  66                  6703408
    131072 < size <=  4194304                2832               3041063576
   4194304 < size <= 16777216                1980              16067987520
  16777216 < size                               0                        0
 -------------------------------------------------------------------------------

 *** WARNING in dbcsr_mm.F:294 :: Using a non-square number of MPI ranks ***
 *** might lead to poor performance. Used ranks: 12 Suggested: 9 25      ***

 -------------------------------------------------------------------------------
 -                                                                             -
 -                      DBCSR MESSAGE PASSING PERFORMANCE                      -
 -                                                                             -
 -------------------------------------------------------------------------------
 ROUTINE             CALLS      AVE VOLUME [Bytes]
 MP_Bcast              152                     12.
 MP_Allreduce          559                     36.
 MP_Alltoall           753                1463172.
 MP_ISend             1246                1458557.
 MP_IRecv             1246                1447383.
 -------------------------------------------------------------------------------

 -------------------------------------------------------------------------------
 -                                                                             -
 -                                GRID STATISTICS                              -
 -                                                                             -
 -------------------------------------------------------------------------------
 LP    KERNEL             BACKEND                              COUNT     PERCENT
 4     collocate general  REF                                1891792      55.46%
 4     integrate general  REF                                 945896      27.73%
 3     collocate general  REF                                 360146      10.56%
 3     integrate general  REF                                 180073       5.28%
 2     collocate general  REF                                  19870       0.58%
 2     integrate general  REF                                   9935       0.29%
 0     collocate general  REF                                   3456       0.10%
 -------------------------------------------------------------------------------

 MEMORY| Estimated peak process memory [MiB]                                7463

 -------------------------------------------------------------------------------
 ----                             MULTIGRID INFO                            ----
 -------------------------------------------------------------------------------
 count for grid        1:         706297          cutoff [a.u.]          500.00
 count for grid        2:        1072570          cutoff [a.u.]          166.67
 count for grid        3:         911506          cutoff [a.u.]           55.56
 count for grid        4:         771293          cutoff [a.u.]           18.52
 count for grid        5:         439675          cutoff [a.u.]            6.17
 count for grid        6:         117549          cutoff [a.u.]            2.06
 count for grid        7:            432          cutoff [a.u.]            0.69
 count for grid        8:              0          cutoff [a.u.]            0.23
 count for grid        9:              0          cutoff [a.u.]            0.08
 count for grid       10:              0          cutoff [a.u.]            0.03
 count for grid       11:              0          cutoff [a.u.]            0.01
 count for grid       12:              0          cutoff [a.u.]            0.00
 total gridlevel count  :        4019322

 -------------------------------------------------------------------------------
 -                                                                             -
 -                         MESSAGE PASSING PERFORMANCE                         -
 -                                                                             -
 -------------------------------------------------------------------------------

 ROUTINE             CALLS      AVE VOLUME [Bytes]
 MP_Group               12
 MP_Bcast              161                5817086.
 MP_Allreduce         4000                  26555.
 MP_Sync                12
 MP_Alltoall            73               85799209.
 MP_SendRecv            12                2721600.
 MP_ISendRecv          330                 495414.
 MP_Wait               451
 MP_ISend              104               13151049.
 MP_IRecv              104               13165571.
 MP_Recv                18                 905216.
 -------------------------------------------------------------------------------


 -------------------------------------------------------------------------------
 -                                                                             -
 -                           R E F E R E N C E S                               -
 -                                                                             -
 -------------------------------------------------------------------------------
 
 CP2K version 9.0 (Development Version), the CP2K developers group (2020).
 CP2K is freely available from https://www.cp2k.org/ .

 Kuehne,Thomas D.; Iannuzzi,Marcella; Del Ben,Mauro;
 Rybkin,Vladimir V.; Seewald,Patrick; Stein,Frederick; Laino,Teodoro;
 Khaliullin,Rustam Z.; Schuett,Ole; Schiffmann,Florian; Golze,Dorothea;
 Wilhelm,Jan; Chulkov,Sergey; Bani-Hashemian,Mohammad Hossein;
 Weber,Valery; Borstnik,Urban; Taillefumier,Mathieu;
 Jakobovits,Alice Shoshana; Lazzaro,Alfio; Pabst,Hans; Mueller,Tiziano;
 Schade,Robert; Guidon,Manuel; Andermatt,Samuel; Holmberg,Nico;
 Schenter,Gregory K.; Hehn,Anna; Bussy,Augustin; Belleflamme,Fabian;
 Tabacchi,Gloria; Gloess,Andreas; Lass,Michael; Bethune,Iain;
 Mundy,Christopher J.; Plessl,Christian; Watkins,Matt;
 VandeVondele,Joost; Krack,Matthias; Hutter,Juerg. 
 The Journal of Chemical Physics, 152 (19), (2020). 
 CP2K: An electronic structure and molecular dynamics software package -
 Quickstep: Efficient and accurate electronic structure calculations.
 https://doi.org/10.1063/5.0007045

 Goerigk, Lars; Hansen, Andreas; Bauer, Christoph; Ehrlich, Stephan;
 Najibi, Asim; Grimme, Stefan. , 19 (48), (2017). 
 A look at the density functional theory zoo with the advanced GMTKN55 database
 for general main group thermochemistry, kinetics and noncovalent interactions.
 https://doi.org/10.1039/C7CP04913G

 Schuett, Ole; Messmer, Peter; Hutter, Juerg; VandeVondele, Joost. 
 Electronic Structure Calculations on Graphics Processing Units, John
 Wiley & Sons, Ltd, 173-190 (2016). 
 GPU-Accelerated Sparse Matrix-Matrix Multiplication for
 Linear Scaling Density Functional Theory.
 https://doi.org/10.1002/9781118670712.ch8

 Borstnik, U; VandeVondele, J; Weber, V; Hutter, J. 
 PARALLEL COMPUTING, 40 (5-6), 47-58 (2014). 
 Sparse matrix multiplication: The distributed block-compressed sparse
 row library.
 https://doi.org/10.1016/j.parco.2014.03.012

 Hutter, J; Iannuzzi, M; Schiffmann, F; VandeVondele, J. 
 WIREs Comput Mol Sci., 4 (1), 15-25 (2014). 
 CP2K: atomistic simulations of condensed matter systems.
 https://doi.org/10.1002/wcms.1159

 Grimme, S; Ehrlich, S; Goerigk, L. 
 JOURNAL OF COMPUTATIONAL CHEMISTRY, 32, 1456 (2011). 
 Effect of the damping function in dispersion corrected density functional theory.
 https://doi.org/10.1002/jcc.21759

 Grimme, S; Antony, J; Ehrlich, S; Krieg, H. 
 JOURNAL OF CHEMICAL PHYSICS, 132 (15), 154104 (2010). 
 A consistent and accurate ab initio parametrization of density
 functional dispersion correction (DFT-D) for the 94 elements H-Pu.
 https://doi.org/10.1063/1.3382344

 VandeVondele, J; Hutter, J. 
 JOURNAL OF CHEMICAL PHYSICS, 127 (11), 114105 (2007). 
 Gaussian basis sets for accurate calculations on molecular systems in
 gas and condensed phases.
 https://doi.org/10.1063/1.2770708

 Krack, M. 
 THEORETICAL CHEMISTRY ACCOUNTS, 114 (1-3), 145-152 (2005). 
 Pseudopotentials for H to Kr optimized for gradient-corrected
 exchange-correlation functionals.
 https://doi.org/10.1007/s00214-005-0655-y

 VandeVondele, J; Krack, M; Mohamed, F; Parrinello, M; Chassaing, T;
 Hutter, J. COMPUTER PHYSICS COMMUNICATIONS, 167 (2), 103-128 (2005). 
 QUICKSTEP: Fast and accurate density functional calculations using a
 mixed Gaussian and plane waves approach.
 https://doi.org/10.1016/j.cpc.2004.12.014

 Frigo, M; Johnson, SG. 
 PROCEEDINGS OF THE IEEE, 93 (2), 216-231 (2005). 
 The design and implementation of FFTW3.
 https://doi.org/10.1109/JPROC.2004.840301

 VandeVondele, J; Hutter, J. 
 JOURNAL OF CHEMICAL PHYSICS, 118 (10), 4365-4369 (2003). 
 An efficient orbital transformation method for electronic structure
 calculations.
 https://doi.org/10.1063/1.1543154

 Hartwigsen, C; Goedecker, S; Hutter, J. 
 PHYSICAL REVIEW B, 58 (7), 3641-3662 (1998). 
 Relativistic separable dual-space Gaussian pseudopotentials from H to Rn.
 https://doi.org/10.1103/PhysRevB.58.3641

 Lippert, G; Hutter, J; Parrinello, M. 
 MOLECULAR PHYSICS, 92 (3), 477-487 (1997). 
 A hybrid Gaussian and plane wave density functional scheme.
 https://doi.org/10.1080/002689797170220

 Perdew, JP; Burke, K; Ernzerhof, M. 
 PHYSICAL REVIEW LETTERS, 77 (18), 3865-3868 (1996). 
 Generalized gradient approximation made simple.
 https://doi.org/10.1103/PhysRevLett.77.3865

 Goedecker, S; Teter, M; Hutter, J. 
 PHYSICAL REVIEW B, 54 (3), 1703-1710 (1996). 
 Separable dual-space Gaussian pseudopotentials.
 https://doi.org/10.1103/PhysRevB.54.1703


 -------------------------------------------------------------------------------
 -                                                                             -
 -                                T I M I N G                                  -
 -                                                                             -
 -------------------------------------------------------------------------------
 SUBROUTINE                       CALLS  ASD         SELF TIME        TOTAL TIME
                                MAXIMUM       AVERAGE  MAXIMUM  AVERAGE  MAXIMUM
 CP2K                                 1  1.0    0.048    0.062  167.224  167.225
 qs_energies                          1  2.0    0.000    0.000  162.446  162.766
 scf_env_do_scf                       1  3.0    0.001    0.010   98.216   98.217
 scf_env_do_scf_inner_loop            1  4.0    0.000    0.000   98.018   98.193
 qs_rho_update_rho                    2  5.0    0.000    0.000   77.590   77.592
 calculate_rho_elec                   2  6.0    0.123    0.125   77.590   77.592
 grid_collocate_task_list             2  7.0   62.836   66.687   62.836   66.687
 qs_ks_update_qs_env                  1  5.0    0.000    0.000   50.333   50.334
 rebuild_ks_matrix                    1  6.0    0.000    0.000   50.327   50.329
 qs_ks_build_kohn_sham_matrix         1  7.0    0.000    0.000   50.327   50.329
 init_scf_run                         1  3.0    0.000    0.000   42.587   42.588
 scf_env_initial_rho_setup            1  4.0    0.000    0.000   42.587   42.588
 sum_up_and_integrate                 1  8.0    0.039    0.040   38.727   38.728
 integrate_v_rspace                   1  9.0    0.000    0.000   38.687   38.689
 grid_integrate_task_list             1 10.0   33.065   35.081   33.065   35.081
 density_rs2pw                        2  7.0    0.000    0.000   14.575   16.206
 pw_transfer                         42  8.9    0.002    0.002   15.932   15.962
 fft_wrap_pw1pw2                     40  9.8    0.000    0.000   15.750   15.781
 scf_post_calculation_gpw             1  3.0    0.000    0.000   14.559   14.877
 write_available_results              1  4.0    0.000    0.000   14.556   14.872
 write_mo_dependent_results           1  5.0    0.000    0.000   14.556   14.872
 calculate_projected_dos              1  6.0    0.321    0.638   14.556   14.872
 fft_wrap_pw1pw2_500                  7 10.1    0.828    0.898   14.334   14.588
 fft3d_ps                            40 11.8    7.710    7.798   11.616   12.008
 cp_fm_syevd                          7  9.3    0.000    0.000    8.843    8.857
 cp_fm_syevd_base                     7 10.3    8.843    8.857    8.843    8.857
 qs_scf_new_mos                       1  5.0    0.000    0.000    8.825    8.828
 do_block_davidson_diag               1  6.0    0.000    0.000    8.825    8.828
 rs_pw_transfer                      37  8.9    0.000    0.001    7.011    8.677
 dbcsr_multiply_generic              54  8.8    0.003    0.003    8.113    8.269
 qs_vxc_create                        1  8.0    0.000    0.000    7.945    7.962
 xc_vxc_pw_create                     1  9.0    0.174    0.178    7.945    7.962
 multiply_cannon                     54  9.8    0.005    0.005    7.070    7.514
 multiply_cannon_loop                54 10.8    0.004    0.005    6.899    7.334
 xc_rho_set_and_dset_create           1 10.0    0.094    0.095    6.489    7.276
 qs_energies_init_hamiltonians        1  3.0    0.000    0.000    7.069    7.069
 rs_pw_transfer_RS2PW_500             3  8.3    1.082    1.111    5.403    7.064
 ot_eigensolver                       1  7.0    0.000    0.000    6.815    6.821
 xc_functional_eval                   1 11.0    0.000    0.000    5.738    6.532
 pbe_lda_eval                         1 12.0    5.738    6.532    5.738    6.532
 multiply_cannon_multrec            324 11.8    5.764    6.423    5.765    6.424
 mp_waitany                         104 10.6    4.714    6.408    4.714    6.408
 prepare_preconditioner               1  7.0    0.000    0.000    5.610    5.615
 make_preconditioner                  1  8.0    0.000    0.000    5.292    5.298
 make_full_all                        1  9.0    0.000    0.000    4.950    4.954
 qs_init_subsys                       1  2.0    0.001    0.001    4.262    4.262
 qs_env_setup                         1  3.0    0.000    0.000    4.162    4.163
 qs_env_rebuild_pw_env                2  3.5    0.000    0.000    4.162    4.163
 pw_env_rebuild                       1  5.0    0.000    0.001    4.161    4.162
 pw_grid_setup                       12  6.0    0.001    0.001    4.126    4.127
 pw_grid_setup_internal              12  7.0    0.082    0.084    4.125    4.126
 build_core_hamiltonian_matrix        1  4.0    0.000    0.000    3.628    3.699
 potential_pw2rs                      1 10.0    0.004    0.005    3.595    3.596
 qs_env_update_s_mstruct              1  4.0    0.000    0.000    3.385    3.513
 pw_grid_sort                        12  8.0    2.899    2.960    3.186    3.477
 cp_fm_power                          1  7.0    0.029    0.030    3.462    3.466
 -------------------------------------------------------------------------------

 The number of warnings for this run is : 2
 
 -------------------------------------------------------------------------------
  **** **** ******  **  PROGRAM ENDED AT                 2021-06-24 12:36:22.703
 ***** ** ***  *** **   PROGRAM RAN ON            cpn-p27-23.compute.cbls.ccr.bu
 **    ****   ******    PROGRAM RAN BY                                    ub2053
 ***** **    ** ** **   PROGRAM PROCESS ID                                 24867
  **** **  *******  **  PROGRAM STOPPED IN /panfs/panfs.cbls.ccr.buffalo.edu/scr
                                           atch/grp-cyberwksp21/ub2053/cof/conve
                                           rgence_analysis/XYZ/ngrid
