# Projected DOS for atomic kind B at iteration step i = 0, E(Fermi) =    -0.385734 a.u.
#     MO Eigenvalue [a.u.]      Occupation                 s                py                pz                px               d-2               d-1                d0               d+1               d+2
       1         -1.938313        2.000000        0.00000131        0.00000003        0.00000033        0.00000001        0.00000000        0.00000000        0.00000001        0.00000000        0.00000000
       2         -1.862898        2.000000        0.00000005        0.00000001        0.00000001        0.00000001        0.00000000        0.00000000        0.00000000        0.00000000        0.00000000
       3         -1.787360        2.000000        0.00000146        0.00000003        0.00000009        0.00000002        0.00000000        0.00000000        0.00000000        0.00000001        0.00000000
       4         -1.760465        2.000000        0.00000037        0.00000003        0.00000017        0.00000003        0.00000000        0.00000001        0.00000001        0.00000002        0.00000000
       5         -1.750548        2.000000        0.00000055        0.00000001        0.00000005        0.00000003        0.00000000        0.00000001        0.00000000        0.00000002        0.00000000
       6         -1.716056        2.000000        0.00000008        0.00000000        0.00000002        0.00000002        0.00000000        0.00000001        0.00000000        0.00000001        0.00000000
       7         -1.698964        2.000000        0.00000000        0.00000000        0.00000000        0.00000000        0.00000000        0.00000000        0.00000000        0.00000000        0.00000000
       8         -1.688238        2.000000        0.02745803        0.00053434        0.03039308        0.00401543        0.00051775        0.00000050        0.00010928        0.00332872        0.00005545
       9         -1.673894        2.000000        0.00000168        0.00000008        0.00000131        0.00000009        0.00000000        0.00000002        0.00000001        0.00000005        0.00000005
      10         -1.668790        2.000000        0.00000020        0.00000001        0.00000022        0.00000003        0.00000001        0.00000000        0.00000000        0.00000003        0.00000001
      11         -1.654758        2.000000        0.00000010        0.00000041        0.00000021        0.00000028        0.00000005        0.00000023        0.00000001        0.00000014        0.00000007
      12         -1.650097        2.000000        0.00000001        0.00000002        0.00000001        0.00000001        0.00000000        0.00000001        0.00000000        0.00000000        0.00000000
      13         -1.647301        2.000000        0.00919831        0.02786951        0.00767507        0.00592699        0.00159009        0.01442136        0.00106793        0.00359552        0.00577875
      14         -1.644831        2.000000        0.00000955        0.00003307        0.00000493        0.00000799        0.00000203        0.00001671        0.00000119        0.00000552        0.00000621
      15         -1.632971        2.000000        0.00000008        0.00000023        0.00000001        0.00000005        0.00000001        0.00000021        0.00000000        0.00000006        0.00000004
      16         -1.608182        2.000000        0.00000066        0.00000528        0.00000048        0.00000360        0.00000031        0.00000268        0.00000001        0.00000166        0.00000151
      17         -1.600464        2.000000        0.00544259        0.02272098        0.00588016        0.02611484        0.00224002        0.01155152        0.00000520        0.01266734        0.00664961
      18         -1.596002        2.000000        0.00000285        0.00000679        0.00000423        0.00000296        0.00000023        0.00000316        0.00000001        0.00000127        0.00000151
      19         -1.579249        2.000000        0.00000021        0.00000002        0.00000002        0.00000001        0.00000000        0.00000000        0.00000000        0.00000001        0.00000000
      20         -1.561803        2.000000        0.03554592        0.00699274        0.03352014        0.00913083        0.00055305        0.00258143        0.00137755        0.00391106        0.00071740
      21         -1.551568        2.000000        0.00000105        0.00000006        0.00000079        0.00000154        0.00000014        0.00000004        0.00000028        0.00000102        0.00000006
      22         -1.542873        2.000000        0.00000008        0.00000025        0.00000004        0.00000193        0.00000010        0.00000019        0.00000009        0.00000125        0.00000001
      23         -1.540810        2.000000        0.00000018        0.00000010        0.00000001        0.00000017        0.00000000        0.00000007        0.00000002        0.00000009        0.00000001
      24         -1.527261        2.000000        0.00250628        0.00816924        0.00547297        0.02436301        0.00164203        0.00544571        0.00087896        0.01580587        0.00103969
      25         -1.526414        2.000000        0.00002963        0.00009459        0.00006271        0.00027696        0.00001788        0.00006227        0.00001006        0.00017660        0.00001230
      26         -1.517554        2.000000        0.00000080        0.00000234        0.00000098        0.00000141        0.00000017        0.00000153        0.00000019        0.00000092        0.00000079
      27         -1.515591        2.000000        0.00000007        0.00000002        0.00000002        0.00000000        0.00000000        0.00000001        0.00000000        0.00000000        0.00000000
      28         -1.511020        2.000000        0.00062725        0.04521772        0.00039147        0.01346616        0.00269481        0.02281427        0.00020527        0.00664854        0.01603321
      29         -1.504237        2.000000        0.00000018        0.00000023        0.00000004        0.00000002        0.00000004        0.00000011        0.00000001        0.00000001        0.00000006
      30         -1.491784        2.000000        0.00000074        0.00000014        0.00000016        0.00000006        0.00000037        0.00000002        0.00000002        0.00000001        0.00000034
      31         -1.486668        2.000000        0.00000001        0.00000001        0.00000001        0.00000001        0.00000000        0.00000000        0.00000000        0.00000000        0.00000001
      32         -1.483611        2.000000        0.00263618        0.00124365        0.00275211        0.00035833        0.00759890        0.00002541        0.00005202        0.00000241        0.00361009
      33         -1.475578        2.000000        0.00000061        0.00000008        0.00000046        0.00000011        0.00000059        0.00000000        0.00000001        0.00000002        0.00000008
      34         -1.463067        2.000000        0.00000003        0.00000001        0.00000003        0.00000006        0.00000005        0.00000000        0.00000001        0.00000003        0.00000000
      35         -1.457711        2.000000        0.00046133        0.00105812        0.00073507        0.00288794        0.00000339        0.00088076        0.00012648        0.00135778        0.00084479
      36         -1.457216        2.000000        0.00000014        0.00000040        0.00000020        0.00000101        0.00000001        0.00000022        0.00000004        0.00000053        0.00000029
      37         -1.450993        2.000000        0.00000645        0.00001492        0.00001198        0.00003732        0.00000324        0.00001017        0.00000146        0.00002344        0.00000053
      38         -1.449790        2.000000        0.00384341        0.00807858        0.00677582        0.02157747        0.00179748        0.00559684        0.00049168        0.01340123        0.00009549
      39         -1.449110        2.000000        0.00798841        0.00044636        0.00808751        0.00022510        0.00386849        0.00049849        0.00003849        0.00000082        0.00749950
      40         -1.433073        2.000000        0.00000004        0.00000003        0.00000017        0.00000005        0.00000002        0.00000000        0.00000008        0.00000004        0.00000006
      41         -1.430919        2.000000        0.00000009        0.00000007        0.00000010        0.00000004        0.00000000        0.00000002        0.00000002        0.00000001        0.00000009
      42         -1.411594        2.000000        0.00000013        0.00000004        0.00000010        0.00000020        0.00000002        0.00000004        0.00000001        0.00000007        0.00000027
      43         -1.411369        2.000000        0.00000025        0.00000017        0.00000026        0.00000049        0.00000005        0.00000009        0.00000001        0.00000022        0.00000074
      44         -1.405424        2.000000        0.00000100        0.00000025        0.00000018        0.00000066        0.00000002        0.00000008        0.00000006        0.00000026        0.00000039
      45         -1.404708        2.000000        0.00000002        0.00000000        0.00000000        0.00000004        0.00000000        0.00000000        0.00000000        0.00000000        0.00000000
      46         -1.402834        2.000000        0.00019939        0.00034325        0.00017077        0.00212315        0.00020497        0.00001497        0.00010358        0.00082020        0.00282609
      47         -1.399770        2.000000        0.00000016        0.00000004        0.00000020        0.00000031        0.00000004        0.00000000        0.00000002        0.00000012        0.00000023
      48         -1.389987        2.000000        0.00000023        0.00000005        0.00000016        0.00000012        0.00000001        0.00000003        0.00000008        0.00000005        0.00000001
      49         -1.381422        2.000000        0.00000038        0.00000008        0.00000037        0.00000039        0.00000002        0.00000001        0.00000010        0.00000022        0.00000008
      50         -1.370606        2.000000        0.02469247        0.00750407        0.01968049        0.00491854        0.00352148        0.00163345        0.00035088        0.00236340        0.00080500
      51         -1.369414        2.000000        0.00000011        0.00000009        0.00000010        0.00000009        0.00000009        0.00000003        0.00000000        0.00000003        0.00000006
      52         -1.368873        2.000000        0.00211583        0.00158599        0.00276831        0.00217644        0.00383757        0.00060868        0.00015136        0.00078828        0.00245713
      53         -1.366658        2.000000        0.00163317        0.00127768        0.00119861        0.00332911        0.00027657        0.00087510        0.00007615        0.00175660        0.00006350
      54         -1.366386        2.000000        0.00038539        0.00032556        0.00028264        0.00095749        0.00006427        0.00022847        0.00002355        0.00050305        0.00002068
      55         -1.359278        2.000000        0.00000049        0.00000003        0.00000032        0.00000013        0.00000029        0.00000001        0.00000006        0.00000002        0.00000010
      56         -1.355798        2.000000        0.00000020        0.00000006        0.00000017        0.00000017        0.00000005        0.00000001        0.00000001        0.00000010        0.00000002
      57         -1.343372        2.000000        0.01223477        0.02468778        0.01229896        0.00017140        0.00026722        0.01471378        0.00015306        0.00003534        0.00718936
      58         -1.341640        2.000000        0.00000015        0.00000016        0.00000025        0.00000005        0.00000009        0.00000002        0.00000012        0.00000003        0.00000002
      59         -1.338016        2.000000        0.00000003        0.00000012        0.00000005        0.00000006        0.00000008        0.00000006        0.00000006        0.00000005        0.00000006
      60         -1.334641        2.000000        0.00000010        0.00000039        0.00000004        0.00000020        0.00000006        0.00000004        0.00000000        0.00000006        0.00000030
      61         -1.332829        2.000000        0.00093416        0.00131738        0.00176856        0.00204348        0.00486779        0.00100043        0.00009265        0.00157601        0.00108568
      62         -1.329830        2.000000        0.00000083        0.00000150        0.00000107        0.00000130        0.00000281        0.00000080        0.00000004        0.00000080        0.00000041
      63         -1.328729        2.000000        0.00063378        0.01721406        0.00100284        0.00579752        0.00233438        0.00533117        0.00026323        0.00191925        0.00714061
      64         -1.322162        2.000000        0.00000013        0.00000021        0.00000011        0.00000045        0.00000056        0.00000023        0.00000008        0.00000021        0.00000049
      65         -1.319100        2.000000        0.00000549        0.00000267        0.00000585        0.00001174        0.00000498        0.00000441        0.00000022        0.00000861        0.00002169
      66         -1.318526        2.000000        0.00139269        0.00070116        0.00129482        0.00208583        0.00173039        0.00125058        0.00005156        0.00154784        0.00499820
      67         -1.313549        2.000000        0.00022722        0.00029893        0.00023586        0.00205375        0.00018772        0.00010866        0.00001653        0.00090265        0.00014023
      68         -1.304222        2.000000        0.00000037        0.00000005        0.00000030        0.00000011        0.00000003        0.00000001        0.00000001        0.00000008        0.00000008
      69         -1.297982        2.000000        0.00000059        0.00000014        0.00000053        0.00000015        0.00000014        0.00000009        0.00000003        0.00000008        0.00000008
      70         -1.297812        2.000000        0.00000825        0.00000037        0.00000866        0.00000166        0.00000063        0.00000004        0.00000008        0.00000156        0.00000094
      71         -1.294084        2.000000        0.00004681        0.00000172        0.00004986        0.00000556        0.00000237        0.00000012        0.00000130        0.00000350        0.00000448
      72         -1.292383        2.000000        0.01783045        0.00094640        0.01827979        0.00135395        0.00106865        0.00007607        0.00050332        0.00098051        0.00140637
      73         -1.290824        2.000000        0.00000305        0.00000024        0.00000314        0.00000022        0.00000017        0.00000001        0.00000010        0.00000010        0.00000017
      74         -1.288305        2.000000        0.00178661        0.00314101        0.00236957        0.00649190        0.00184919        0.00116466        0.00022765        0.00251777        0.00037801
      75         -1.277634        2.000000        0.00000009        0.00000003        0.00000002        0.00000002        0.00000001        0.00000001        0.00000000        0.00000001        0.00000000
      76         -1.274738        2.000000        0.00000010        0.00000006        0.00000007        0.00000006        0.00000005        0.00000000        0.00000005        0.00000004        0.00000000
      77         -1.269182        2.000000        0.01329590        0.00638596        0.00841359        0.01411183        0.00000351        0.00158619        0.00007764        0.00799368        0.00082203
      78         -1.267929        2.000000        0.00028822        0.00033502        0.00030915        0.00389768        0.00064705        0.00005205        0.00003854        0.00120168        0.00005272
      79         -1.267030        2.000000        0.00000082        0.00000068        0.00000069        0.00000753        0.00000127        0.00000012        0.00000007        0.00000232        0.00000011
      80         -1.265209        2.000000        0.00000082        0.00000035        0.00000028        0.00000178        0.00000009        0.00000012        0.00000009        0.00000109        0.00000009
      81         -1.262566        2.000000        0.00000042        0.00000055        0.00000034        0.00000157        0.00000011        0.00000018        0.00000014        0.00000091        0.00000013
      82         -1.251160        2.000000        0.00000010        0.00000005        0.00000019        0.00000044        0.00000002        0.00000000        0.00000006        0.00000016        0.00000001
      83         -1.250995        2.000000        0.00000010        0.00000002        0.00000003        0.00000025        0.00000008        0.00000000        0.00000001        0.00000006        0.00000001
      84         -1.239581        2.000000        0.00000008        0.00000006        0.00000004        0.00000045        0.00000011        0.00000001        0.00000013        0.00000019        0.00000005
      85         -1.232838        2.000000        0.00000042        0.00000106        0.00000029        0.00000039        0.00000023        0.00000038        0.00000054        0.00000008        0.00000018
      86         -1.230556        2.000000        0.00000030        0.00000015        0.00000016        0.00000131        0.00000035        0.00000004        0.00000000        0.00000026        0.00000005
      87         -1.229643        2.000000        0.00000283        0.00000928        0.00000175        0.00002890        0.00002664        0.00000656        0.00000019        0.00001085        0.00000045
      88         -1.229155        2.000000        0.00010341        0.00114998        0.00023935        0.00677181        0.00708184        0.00104858        0.00017789        0.00320123        0.00000008
      89         -1.228655        2.000000        0.00368941        0.00185030        0.00180770        0.01109338        0.00294074        0.00019752        0.00000029        0.00234412        0.00005164
      90         -1.226676        2.000000        0.00075333        0.01604576        0.00033059        0.00616377        0.00073629        0.00467458        0.00004912        0.00232678        0.00422054
      91         -1.221221        2.000000        0.00000019        0.00000070        0.00000013        0.00000028        0.00000005        0.00000015        0.00000021        0.00000005        0.00000019
      92         -1.216157        2.000000        0.00499792        0.00917058        0.00233091        0.00069782        0.00003724        0.00220073        0.00000207        0.00003730        0.00069487
      93         -1.211884        2.000000        0.00018664        0.01242260        0.00043243        0.00008004        0.00000225        0.00434084        0.00019324        0.00004035        0.00403044
      94         -1.210558        2.000000        0.00002627        0.00000969        0.00001688        0.00000532        0.00000013        0.00000195        0.00000032        0.00000137        0.00000041
      95         -1.208642        2.000000        0.01942211        0.00210674        0.01379240        0.00566516        0.00003305        0.00026003        0.00044416        0.00114224        0.00000292
      96         -1.207305        2.000000        0.00000040        0.00000057        0.00000036        0.00000020        0.00000007        0.00000025        0.00000005        0.00000016        0.00000014
      97         -1.202454        2.000000        0.00000273        0.00000041        0.00000215        0.00000028        0.00000012        0.00000020        0.00000012        0.00000002        0.00000042
      98         -1.195706        2.000000        0.00826793        0.00196507        0.00656595        0.00042377        0.00149028        0.00115000        0.00030667        0.00039288        0.00292909
      99         -1.194322        2.000000        0.00000185        0.00000125        0.00000157        0.00000017        0.00000054        0.00000053        0.00000042        0.00000016        0.00000090
     100         -1.189576        2.000000        0.00000021        0.00000019        0.00000042        0.00000010        0.00000001        0.00000009        0.00000041        0.00000003        0.00000002
     101         -1.183128        2.000000        0.00000005        0.00000006        0.00000011        0.00000010        0.00000004        0.00000002        0.00000001        0.00000001        0.00000008
     102         -1.173548        2.000000        0.00000031        0.00000045        0.00000056        0.00000228        0.00000068        0.00000044        0.00000017        0.00000140        0.00000015
     103         -1.172726        2.000000        0.00001421        0.00006581        0.00002435        0.00015587        0.00001890        0.00001784        0.00000337        0.00008073        0.00000374
     104         -1.172601        2.000000        0.00016873        0.00077922        0.00028999        0.00183427        0.00021658        0.00021165        0.00003834        0.00092933        0.00004340
     105         -1.170339        2.000000        0.00000020        0.00000181        0.00000010        0.00000024        0.00000023        0.00000035        0.00000002        0.00000008        0.00000003
     106         -1.167024        2.000000        0.00158323        0.01302323        0.00055705        0.00007120        0.00172254        0.00241216        0.00000189        0.00002696        0.00057866
     107         -1.165006        2.000000        0.00000043        0.00000206        0.00000019        0.00000022        0.00000012        0.00000034        0.00000014        0.00000002        0.00000012
     108         -1.159016        2.000000        0.00000010        0.00000027        0.00000007        0.00000012        0.00000003        0.00000006        0.00000002        0.00000009        0.00000009
     109         -1.155927        2.000000        0.00000037        0.00000031        0.00000036        0.00000048        0.00000004        0.00000022        0.00000023        0.00000027        0.00000021
     110         -1.151809        2.000000        0.00000009        0.00000009        0.00000004        0.00000018        0.00000002        0.00000001        0.00000003        0.00000006        0.00000017
     111         -1.147577        2.000000        0.00000369        0.00000031        0.00000230        0.00000749        0.00000011        0.00000024        0.00000066        0.00000189        0.00000463
     112         -1.145954        2.000000        0.00158567        0.00012507        0.00107688        0.00487534        0.00002972        0.00004453        0.00008801        0.00127713        0.00246207
     113         -1.143270        2.000000        0.00000018        0.00000025        0.00000028        0.00000044        0.00000001        0.00000012        0.00000003        0.00000015        0.00000009
     114         -1.140707        2.000000        0.00151116        0.00264195        0.00182386        0.00350834        0.00000449        0.00094229        0.00018411        0.00128228        0.00002071
     115         -1.136261        2.000000        0.00507421        0.00117207        0.00497052        0.00504561        0.00067803        0.00032059        0.00001874        0.00324570        0.00024644
     116         -1.135050        2.000000        0.00000027        0.00000008        0.00000013        0.00000081        0.00000004        0.00000002        0.00000021        0.00000016        0.00000014
     117         -1.134519        2.000000        0.00011440        0.00567535        0.00052767        0.00784398        0.00004918        0.00102390        0.00030151        0.00127735        0.00014147
     118         -1.134294        2.000000        0.00001263        0.00051548        0.00005143        0.00067794        0.00000416        0.00009064        0.00003211        0.00011046        0.00001043
     119         -1.129474        2.000000        0.00000012        0.00000028        0.00000009        0.00000025        0.00000003        0.00000014        0.00000005        0.00000003        0.00000006
     120         -1.125909        2.000000        0.00210067        0.01705152        0.00325252        0.00266111        0.00006196        0.00314355        0.00088684        0.00018165        0.00004014
     121         -1.125224        2.000000        0.00000841        0.00005123        0.00001046        0.00000772        0.00000038        0.00000921        0.00000098        0.00000073        0.00000055
     122         -1.124470        2.000000        0.00310431        0.00024373        0.00223596        0.00081865        0.00058487        0.00000480        0.00004204        0.00043710        0.00090103
     123         -1.119116        2.000000        0.00128076        0.00017522        0.00121299        0.00738161        0.00500845        0.00002483        0.00008496        0.00137552        0.00065719
     124         -1.117416        2.000000        0.00000067        0.00000063        0.00000037        0.00000073        0.00000014        0.00000013        0.00000002        0.00000012        0.00000002
     125         -1.114567        2.000000        0.00000032        0.00000018        0.00000012        0.00000021        0.00000005        0.00000003        0.00000006        0.00000004        0.00000011
     126         -1.112757        2.000000        0.00000001        0.00000021        0.00000002        0.00000014        0.00000003        0.00000000        0.00000003        0.00000001        0.00000031
     127         -1.111710        2.000000        0.00028156        0.01879447        0.00044778        0.00372159        0.00007932        0.00145209        0.00006352        0.00008970        0.01233814
     128         -1.107244        2.000000        0.01497795        0.01060467        0.01227517        0.00193886        0.00008398        0.00440074        0.00030824        0.00049209        0.00162817
     129         -1.107176        2.000000        0.00000351        0.00000284        0.00000318        0.00000077        0.00000007        0.00000112        0.00000011        0.00000018        0.00000057
     130         -1.106786        2.000000        0.00000069        0.00000112        0.00000062        0.00000015        0.00000003        0.00000035        0.00000032        0.00000004        0.00000018
     131         -1.103906        2.000000        0.00054805        0.00327368        0.00115206        0.00776721        0.00204772        0.00044094        0.00046529        0.00166379        0.00026354
     132         -1.101573        2.000000        0.00000002        0.00000006        0.00000003        0.00000003        0.00000002        0.00000001        0.00000000        0.00000003        0.00000006
     133         -1.099223        2.000000        0.00000009        0.00000009        0.00000023        0.00000010        0.00000003        0.00000002        0.00000003        0.00000002        0.00000006
     134         -1.092395        2.000000        0.00037103        0.00345312        0.00014918        0.00025072        0.00101568        0.00036571        0.00002875        0.00007131        0.00050071
     135         -1.090563        2.000000        0.00000253        0.00000083        0.00000197        0.00000174        0.00000230        0.00000002        0.00000031        0.00000019        0.00000025
     136         -1.086614        2.000000        0.00300766        0.00479092        0.00238502        0.00220685        0.00120413        0.00069616        0.00023105        0.00036921        0.00006170
     137         -1.084483        2.000000        0.00000035        0.00000019        0.00000020        0.00000005        0.00000002        0.00000004        0.00000004        0.00000001        0.00000001
     138         -1.078929        2.000000        0.00059572        0.00007384        0.00034221        0.00001444        0.00000030        0.00001046        0.00001121        0.00000230        0.00000144
     139         -1.077763        2.000000        0.02004613        0.00295724        0.01133248        0.00054880        0.00000422        0.00035999        0.00018508        0.00007508        0.00003530
     140         -1.075994        2.000000        0.00001780        0.00000440        0.00001197        0.00000110        0.00000001        0.00000080        0.00000056        0.00000029        0.00000004
     141         -1.075123        2.000000        0.00358601        0.00291053        0.00279920        0.00063319        0.00017109        0.00017448        0.00033971        0.00035444        0.00291810
     142         -1.072366        2.000000        0.00067212        0.00035625        0.00108695        0.01151578        0.00092109        0.00002265        0.00034821        0.00639131        0.00021262
     143         -1.071672        2.000000        0.00002239        0.00000756        0.00001187        0.00000268        0.00000009        0.00000149        0.00000012        0.00000045        0.00000010
     144         -1.068221        2.000000        0.00000607        0.00000322        0.00000289        0.00000125        0.00000006        0.00000060        0.00000011        0.00000040        0.00000006