# Projected DOS for atomic kind H at iteration step i = 0, E(Fermi) =    -0.385734 a.u.
#     MO Eigenvalue [a.u.]      Occupation                 s                py                pz                px
       1         -1.938313        2.000000        0.00000324        0.00000693        0.00001492        0.00000481
       2         -1.862898        2.000000        0.00000099        0.00001816        0.00001653        0.00001463
       3         -1.787360        2.000000        0.00000458        0.00000600        0.00002043        0.00000555
       4         -1.760465        2.000000        0.00000395        0.00000825        0.00000617        0.00000461
       5         -1.750548        2.000000        0.00000309        0.00000623        0.00000818        0.00000500
       6         -1.716056        2.000000        0.00000327        0.00000378        0.00000554        0.00000126
       7         -1.698964        2.000000        0.00000140        0.00000151        0.00000168        0.00000104
       8         -1.688238        2.000000        0.00194096        0.00160909        0.00028519        0.00105878
       9         -1.673894        2.000000        0.00000462        0.00003784        0.00004528        0.00002169
      10         -1.668790        2.000000        0.00000171        0.00000133        0.00000214        0.00000126
      11         -1.654758        2.000000        0.00000145        0.00000706        0.00000922        0.00000456
      12         -1.650097        2.000000        0.00000400        0.00000242        0.00000239        0.00000164
      13         -1.647301        2.000000        0.00136911        0.00134073        0.00007718        0.00067939
      14         -1.644831        2.000000        0.00000393        0.00002168        0.00002225        0.00001376
      15         -1.632971        2.000000        0.00000100        0.00000410        0.00001116        0.00000191
      16         -1.608182        2.000000        0.00000244        0.00000534        0.00001166        0.00000490
      17         -1.600464        2.000000        0.00066630        0.00067963        0.00002679        0.00050555
      18         -1.596002        2.000000        0.00000079        0.00000417        0.00000289        0.00000479
      19         -1.579249        2.000000        0.00000138        0.00000158        0.00000428        0.00000155
      20         -1.561803        2.000000        0.00065149        0.00049676        0.00005985        0.00050612
      21         -1.551568        2.000000        0.00000095        0.00000324        0.00000509        0.00000373
      22         -1.542873        2.000000        0.00000096        0.00000217        0.00000361        0.00000282
      23         -1.540810        2.000000        0.00000151        0.00000126        0.00001147        0.00000762
      24         -1.527261        2.000000        0.00536886        0.00393674        0.00000540        0.00160115
      25         -1.526414        2.000000        0.00005095        0.00004424        0.00001905        0.00001377
      26         -1.517554        2.000000        0.00000083        0.00000341        0.00000421        0.00000037
      27         -1.515591        2.000000        0.00000111        0.00002636        0.00003714        0.00002307
      28         -1.511020        2.000000        0.00043547        0.00042335        0.00001357        0.00035760
      29         -1.504237        2.000000        0.00000132        0.00000197        0.00001919        0.00002083
      30         -1.491784        2.000000        0.00000248        0.00000269        0.00002307        0.00002023
      31         -1.486668        2.000000        0.00000225        0.00000577        0.00001481        0.00000430
      32         -1.483611        2.000000        0.00157545        0.00075451        0.00009973        0.00118133
      33         -1.475578        2.000000        0.00000246        0.00000411        0.00000867        0.00000355
      34         -1.463067        2.000000        0.00000112        0.00000062        0.00000173        0.00000130
      35         -1.457711        2.000000        0.01220381        0.00816639        0.00094798        0.00282495
      36         -1.457216        2.000000        0.00000693        0.00000778        0.00001047        0.00000449
      37         -1.450993        2.000000        0.00000883        0.00000535        0.00000424        0.00000208
      38         -1.449790        2.000000        0.00316396        0.00295446        0.00028182        0.00092417
      39         -1.449110        2.000000        0.00202785        0.00164102        0.00030287        0.00093602
      40         -1.433073        2.000000        0.00000083        0.00000148        0.00000845        0.00000606
      41         -1.430919        2.000000        0.00000093        0.00000033        0.00000176        0.00000075
      42         -1.411594        2.000000        0.00000379        0.00000729        0.00001377        0.00000781
      43         -1.411369        2.000000        0.00000190        0.00000211        0.00000928        0.00000805
      44         -1.405424        2.000000        0.00000361        0.00000590        0.00002012        0.00001070
      45         -1.404708        2.000000        0.00000345        0.00000381        0.00000582        0.00000400
      46         -1.402834        2.000000        0.00773273        0.00387789        0.00003650        0.00149543
      47         -1.399770        2.000000        0.00000140        0.00000104        0.00000273        0.00000051
      48         -1.389987        2.000000        0.00000186        0.00000126        0.00000505        0.00000307
      49         -1.381422        2.000000        0.00000292        0.00000446        0.00000462        0.00000674
      50         -1.370606        2.000000        0.00205009        0.00122514        0.00008243        0.00183118
      51         -1.369414        2.000000        0.00000367        0.00002173        0.00001111        0.00002983
      52         -1.368873        2.000000        0.00438754        0.00320501        0.00000510        0.00120321
      53         -1.366658        2.000000        0.00396060        0.00159372        0.00006940        0.00142736
      54         -1.366386        2.000000        0.00105974        0.00046044        0.00002688        0.00034871
      55         -1.359278        2.000000        0.00000101        0.00000232        0.00000212        0.00000123
      56         -1.355798        2.000000        0.00000163        0.00000360        0.00000704        0.00000472
      57         -1.343372        2.000000        0.00075026        0.00032961        0.00018089        0.00079426
      58         -1.341640        2.000000        0.00000185        0.00000170        0.00000073        0.00000046
      59         -1.338016        2.000000        0.00000121        0.00000564        0.00000546        0.00000691
      60         -1.334641        2.000000        0.00000210        0.00000178        0.00000273        0.00000268
      61         -1.332829        2.000000        0.01600528        0.00933047        0.00042627        0.00333406
      62         -1.329830        2.000000        0.00001123        0.00000486        0.00000359        0.00000536
      63         -1.328729        2.000000        0.00276992        0.00159424        0.00002080        0.00211512
      64         -1.322162        2.000000        0.00000114        0.00000070        0.00000176        0.00000261
      65         -1.319100        2.000000        0.00001564        0.00000756        0.00000211        0.00000358
      66         -1.318526        2.000000        0.00151939        0.00104727        0.00010233        0.00038883
      67         -1.313549        2.000000        0.01737204        0.00580492        0.00107010        0.00452384
      68         -1.304222        2.000000        0.00000662        0.00004938        0.00004644        0.00004918
      69         -1.297982        2.000000        0.00000246        0.00000155        0.00000199        0.00000210
      70         -1.297812        2.000000        0.00000169        0.00000122        0.00000183        0.00000279
      71         -1.294084        2.000000        0.00000940        0.00000629        0.00000417        0.00001016
      72         -1.292383        2.000000        0.00201472        0.00127541        0.00100672        0.00191158
      73         -1.290824        2.000000        0.00000675        0.00000607        0.00000600        0.00000802
      74         -1.288305        2.000000        0.01649851        0.00682731        0.00050680        0.00188059
      75         -1.277634        2.000000        0.00000520        0.00000739        0.00000902        0.00000878
      76         -1.274738        2.000000        0.00000097        0.00000042        0.00000108        0.00000029
      77         -1.269182        2.000000        0.00141455        0.00107465        0.00017428        0.00110887
      78         -1.267929        2.000000        0.00375974        0.00138778        0.00075357        0.00114308
      79         -1.267030        2.000000        0.00001689        0.00002113        0.00000938        0.00001440
      80         -1.265209        2.000000        0.00000138        0.00000039        0.00000236        0.00000061
      81         -1.262566        2.000000        0.00000152        0.00000162        0.00000228        0.00000142
      82         -1.251160        2.000000        0.00000095        0.00000310        0.00000356        0.00000251
      83         -1.250995        2.000000        0.00000526        0.00002540        0.00002919        0.00001426
      84         -1.239581        2.000000        0.00000142        0.00000045        0.00000046        0.00000115
      85         -1.232838        2.000000        0.00000421        0.00000485        0.00000238        0.00000149
      86         -1.230556        2.000000        0.00000257        0.00000295        0.00000229        0.00000158
      87         -1.229643        2.000000        0.00001777        0.00001265        0.00000350        0.00000436
      88         -1.229155        2.000000        0.00205763        0.00152643        0.00028565        0.00076344
      89         -1.228655        2.000000        0.00268052        0.00128492        0.00056409        0.00173317
      90         -1.226676        2.000000        0.00745103        0.00390365        0.00003290        0.00243436
      91         -1.221221        2.000000        0.00000245        0.00000092        0.00000091        0.00000092
      92         -1.216157        2.000000        0.00433041        0.00264947        0.00066988        0.00253262
      93         -1.211884        2.000000        0.01361820        0.00577138        0.00002633        0.00264887
      94         -1.210558        2.000000        0.00001102        0.00000910        0.00000830        0.00000920
      95         -1.208642        2.000000        0.00630705        0.00307197        0.00015053        0.00257418
      96         -1.207305        2.000000        0.00000241        0.00000170        0.00000191        0.00000129
      97         -1.202454        2.000000        0.00000489        0.00001150        0.00000281        0.00001053
      98         -1.195706        2.000000        0.01269005        0.00554187        0.00019763        0.00118474
      99         -1.194322        2.000000        0.00000246        0.00000184        0.00000381        0.00000068
     100         -1.189576        2.000000        0.00000208        0.00000126        0.00000196        0.00000398
     101         -1.183128        2.000000        0.00000103        0.00000072        0.00000147        0.00000101
     102         -1.173548        2.000000        0.00001929        0.00000654        0.00000207        0.00000392
     103         -1.172726        2.000000        0.00116580        0.00043013        0.00009683        0.00009405
     104         -1.172601        2.000000        0.01332542        0.00479902        0.00094511        0.00123450
     105         -1.170339        2.000000        0.00000448        0.00000267        0.00000146        0.00000258
     106         -1.167024        2.000000        0.00534567        0.00163886        0.00038587        0.00373991
     107         -1.165006        2.000000        0.00000192        0.00000130        0.00000183        0.00000134
     108         -1.159016        2.000000        0.00000357        0.00000098        0.00000124        0.00000487
     109         -1.155927        2.000000        0.00000198        0.00000176        0.00000387        0.00000103
     110         -1.151809        2.000000        0.00000211        0.00000073        0.00000225        0.00000093
     111         -1.147577        2.000000        0.00003527        0.00000859        0.00000208        0.00000617
     112         -1.145954        2.000000        0.01630892        0.00475937        0.00005303        0.00134409
     113         -1.143270        2.000000        0.00000207        0.00000139        0.00000087        0.00000335
     114         -1.140707        2.000000        0.00303254        0.00264616        0.00229576        0.00184482
     115         -1.136261        2.000000        0.00750746        0.00578792        0.00051581        0.00268006
     116         -1.135050        2.000000        0.00000436        0.00000143        0.00000428        0.00000543
     117         -1.134519        2.000000        0.00844125        0.00322523        0.00223454        0.00148541
     118         -1.134294        2.000000        0.00072318        0.00023496        0.00019652        0.00011021
     119         -1.129474        2.000000        0.00000593        0.00000236        0.00000180        0.00000242
     120         -1.125909        2.000000        0.01006852        0.00438176        0.00057402        0.00227092
     121         -1.125224        2.000000        0.00003089        0.00001674        0.00000385        0.00001110
     122         -1.124470        2.000000        0.00623622        0.00220271        0.00033024        0.00172529
     123         -1.119116        2.000000        0.00022822        0.00016077        0.00010144        0.00016136
     124         -1.117416        2.000000        0.00000158        0.00000141        0.00000286        0.00000113
     125         -1.114567        2.000000        0.00000061        0.00000083        0.00000101        0.00000078
     126         -1.112757        2.000000        0.00000412        0.00000057        0.00000051        0.00000057
     127         -1.111710        2.000000        0.00821576        0.00319384        0.00023148        0.00346803
     128         -1.107244        2.000000        0.00345479        0.00083721        0.00028028        0.00300310
     129         -1.107176        2.000000        0.00000482        0.00000136        0.00000152        0.00000369
     130         -1.106786        2.000000        0.00000129        0.00000110        0.00000069        0.00000103
     131         -1.103906        2.000000        0.01010786        0.00572710        0.00004794        0.00299206
     132         -1.101573        2.000000        0.00000141        0.00000184        0.00000186        0.00000105
     133         -1.099223        2.000000        0.00000091        0.00000110        0.00000095        0.00000054
     134         -1.092395        2.000000        0.00517553        0.00155625        0.00013157        0.00295294
     135         -1.090563        2.000000        0.00001092        0.00000605        0.00001298        0.00000881
     136         -1.086614        2.000000        0.01085000        0.00532735        0.00030244        0.00418521
     137         -1.084483        2.000000        0.00000219        0.00000175        0.00000130        0.00000041
     138         -1.078929        2.000000        0.00028707        0.00017025        0.00002158        0.00008965
     139         -1.077763        2.000000        0.00840562        0.00473285        0.00007341        0.00276059
     140         -1.075994        2.000000        0.00000847        0.00000528        0.00000418        0.00000639
     141         -1.075123        2.000000        0.00670107        0.00213287        0.00121016        0.00454443
     142         -1.072366        2.000000        0.00557666        0.00433617        0.00030685        0.00151488
     143         -1.071672        2.000000        0.00000736        0.00000675        0.00000269        0.00000373
     144         -1.068221        2.000000        0.00000361        0.00000118        0.00000031        0.00000138
     145         -1.068063        2.000000        0.00000110        0.00000096        0.00000178        0.00000138
     146         -1.064840        2.000000        0.00156117        0.00048620        0.00022563        0.00149487
     147         -1.059599        2.000000        0.01799067        0.00738163        0.00016127        0.00306563
     148         -1.057701        2.000000        0.00615148        0.00424966        0.00066962        0.00246223
     149         -1.056738        2.000000        0.00001438        0.00000508        0.00000733        0.00000509
     150         -1.047807        2.000000        0.00000830        0.00000404        0.00000610        0.00000697
     151         -1.046726        2.000000        0.00756424        0.00126543        0.00020052        0.00452176
     152         -1.044936        2.000000        0.00000559        0.00000121        0.00000322        0.00000131
     153         -1.042342        2.000000        0.00841314        0.00381434        0.00051295        0.00399311
     154         -1.041105        2.000000        0.00000469        0.00000459        0.00000164        0.00000663
     155         -1.040828        2.000000        0.01133404        0.00089364        0.00008903        0.00813564
     156         -1.040114        2.000000        0.00000640        0.00000066        0.00000017        0.00000160
     157         -1.038837        2.000000        0.00721426        0.00136708        0.00003719        0.00117445
     158         -1.038215        2.000000        0.00074046        0.00015304        0.00000214        0.00014747
     159         -1.033816        2.000000        0.01640745        0.00928940        0.00014052        0.00325469
     160         -1.032828        2.000000        0.02127458        0.01514286        0.00024490        0.00424952
     161         -1.032503        2.000000        0.00005657        0.00003210        0.00000353        0.00001765
     162         -1.031634        2.000000        0.00347903        0.00215137        0.00008322        0.00301097
     163         -1.029821        2.000000        0.00001558        0.00000930        0.00000301        0.00000949
     164         -1.028423        2.000000        0.01354688        0.00776788        0.00025370        0.00235418
     165         -1.018808        2.000000        0.00001899        0.00000584        0.00002423        0.00000742
     166         -1.017976        2.000000        0.00000465        0.00000236        0.00000233        0.00000133
     167         -1.016103        2.000000        0.00087906        0.00026252        0.00065162        0.00048897
     168         -1.013623        2.000000        0.00001350        0.00000936        0.00000199        0.00000477
     169         -1.010567        2.000000        0.01817250        0.00962780        0.00031392        0.00604256
     170         -1.009701        2.000000        0.00002249        0.00000983        0.00000989        0.00000806
     171         -1.005254        2.000000        0.00000599        0.00000222        0.00000125        0.00000228
     172         -1.003235        2.000000        0.00000660        0.00000581        0.00001110        0.00000648
     173         -1.002074        2.000000        0.00004242        0.00002725        0.00002799        0.00001457
     174         -0.995319        2.000000        0.00370284        0.00123649        0.00011638        0.00195777
     175         -0.992779        2.000000        0.05030391        0.00625361        0.00176118        0.00188577
     176         -0.991437        2.000000        0.00001497        0.00000636        0.00000339        0.00000744
     177         -0.988804        2.000000        0.01129648        0.00258459        0.00076884        0.00359637
     178         -0.987269        2.000000        0.00012595        0.00002914        0.00001215        0.00002992
     179         -0.985177        2.000000        0.00076758        0.00014719        0.00001773        0.00011944
     180         -0.985119        2.000000        0.00561578        0.00103140        0.00015899        0.00087547
     181         -0.982599        2.000000        0.01554017        0.00630393        0.00004364        0.00260488
     182         -0.981185        2.000000        0.00006507        0.00002452        0.00000793        0.00001455
     183         -0.980204        2.000000        0.00256370        0.00074244        0.00025170        0.00124157
     184         -0.975582        2.000000        0.00001354        0.00000812        0.00000770        0.00000706
     185         -0.975401        2.000000        0.00229064        0.00229538        0.00076717        0.00217481
     186         -0.973695        2.000000        0.00165401        0.00050771        0.00053701        0.00071211
     187         -0.972913        2.000000        0.00001573        0.00000560        0.00001009        0.00000894
     188         -0.972612        2.000000        0.00005988        0.00001830        0.00000705        0.00004053
     189         -0.971755        2.000000        0.00444382        0.00094597        0.00017348        0.00370284
     190         -0.968673        2.000000        0.00000710        0.00000455        0.00000299        0.00000280
     191         -0.964513        2.000000        0.00003308        0.00000785        0.00000179        0.00000584
     192         -0.962743        2.000000        0.00130215        0.00059808        0.00209278        0.00243457
     193         -0.961083        2.000000        0.00000896        0.00000551        0.00000640        0.00000383
     194         -0.961036        2.000000        0.00520414        0.00198073        0.00047265        0.00264296
     195         -0.958661        2.000000        0.03455242        0.00260070        0.00098801        0.00688883
     196         -0.954326        2.000000        0.01628791        0.00143995        0.00057128        0.00579878
     197         -0.950081        2.000000        0.00000357        0.00000113        0.00000107        0.00000129
     198         -0.949410        2.000000        0.00495905        0.00118698        0.00032876        0.00245023
     199         -0.946316        2.000000        0.00003496        0.00002232        0.00003179        0.00003449
     200         -0.944672        2.000000        0.00787319        0.00286512        0.00043016        0.00138260
     201         -0.940866        2.000000        0.09516448        0.00562462        0.00170141        0.00069668
     202         -0.940560        2.000000        0.02020820        0.00205470        0.00024098        0.00036114
     203         -0.939917        2.000000        0.08408112        0.00630160        0.00131961        0.00078183
     204         -0.935731        2.000000        0.00033869        0.00006290        0.00001267        0.00001651
     205         -0.934366        2.000000        0.00000422        0.00000346        0.00000026        0.00000143
     206         -0.933823        2.000000        0.02448110        0.01281120        0.00010079        0.00210217
     207         -0.932724        2.000000        0.01106568        0.00063675        0.00029440        0.00939647
     208         -0.931267        2.000000        0.00191858        0.00091549        0.00001890        0.00009405
     209         -0.930100        2.000000        0.02068376        0.00856335        0.00014468        0.00104252
     210         -0.928624        2.000000        0.00010608        0.00001827        0.00001090        0.00005725
     211         -0.926150        2.000000        0.01767945        0.00106475        0.00053914        0.00128987
     212         -0.925258        2.000000        0.01734634        0.00215395        0.00029251        0.01181867
     213         -0.921738        2.000000        0.00013980        0.00002807        0.00000910        0.00008682
     214         -0.918978        2.000000        0.00000239        0.00000150        0.00000195        0.00000157
     215         -0.917608        2.000000        0.00410024        0.00164981        0.00016129        0.00115649
     216         -0.913238        2.000000        0.00675227        0.00121930        0.00016226        0.00289018
     217         -0.913178        2.000000        0.00991500        0.00266167        0.00030025        0.00468000
     218         -0.912536        2.000000        0.00061933        0.00018490        0.00003021        0.00023850
     219         -0.910410        2.000000        0.00004150        0.00000757        0.00000265        0.00001266
     220         -0.908180        2.000000        0.00463922        0.00058125        0.00019097        0.00266740
     221         -0.907101        2.000000        0.01027596        0.00092458        0.00020630        0.00534832
     222         -0.904359        2.000000        0.00188315        0.00054064        0.00014620        0.00021623
     223         -0.901486        2.000000        0.03165473        0.00448483        0.00080821        0.00445152
     224         -0.900202        2.000000        0.00007140        0.00000740        0.00000228        0.00003945
     225         -0.898876        2.000000        0.03140851        0.00312110        0.00060727        0.01258449
     226         -0.894812        2.000000        0.01088488        0.00508238        0.00066256        0.00326291
     227         -0.894663        2.000000        0.02070161        0.00808508        0.00016223        0.00277786
     228         -0.892731        2.000000        0.00021180        0.00006469        0.00000879        0.00002507
     229         -0.892618        2.000000        0.00006581        0.00002189        0.00000636        0.00001846
     230         -0.890446        2.000000        0.00011442        0.00003294        0.00001172        0.00003363
     231         -0.889780        2.000000        0.01167348        0.00478213        0.00048651        0.00425765
     232         -0.889023        2.000000        0.00009173        0.00003009        0.00001121        0.00004617
     233         -0.888590        2.000000        0.03873874        0.01592274        0.00046664        0.00474678
     234         -0.886733        2.000000        0.01429133        0.00317732        0.00024769        0.00457942
     235         -0.882438        2.000000        0.04350018        0.01334633        0.00047449        0.00449525
     236         -0.878178        2.000000        0.01515075        0.00569279        0.00034835        0.00589135
     237         -0.876649        2.000000        0.12473429        0.00667317        0.00201137        0.00094066
     238         -0.874805        2.000000        0.00409755        0.00030615        0.00004549        0.00030841
     239         -0.874103        2.000000        0.00022138        0.00003099        0.00000246        0.00000703
     240         -0.873508        2.000000        0.02527947        0.00273652        0.00025878        0.00367573
     241         -0.872959        2.000000        0.02559880        0.00265927        0.00020961        0.00314519
     242         -0.868018        2.000000        0.00024217        0.00002360        0.00000621        0.00001302
     243         -0.867913        2.000000        0.00524517        0.00119180        0.00026243        0.00174491
     244         -0.865446        2.000000        0.00006353        0.00001227        0.00000652        0.00001072
     245         -0.864724        2.000000        0.01206720        0.00209197        0.00010617        0.00358013
     246         -0.864037        2.000000        0.00019598        0.00002558        0.00000466        0.00002517
     247         -0.861992        2.000000        0.02410995        0.00318119        0.00062703        0.00549583
     248         -0.861104        2.000000        0.00034842        0.00007646        0.00009655        0.00017583
     249         -0.859380        2.000000        0.01393850        0.00239508        0.00103121        0.00789101
     250         -0.857743        2.000000        0.05648211        0.00309613        0.00099127        0.00727119
     251         -0.857265        2.000000        0.00009312        0.00000899        0.00001425        0.00001165
     252         -0.856869        2.000000        0.00001925        0.00000330        0.00001189        0.00000753
     253         -0.852179        2.000000        0.07834129        0.00269357        0.00172746        0.00103227
     254         -0.849784        2.000000        0.00004743        0.00000380        0.00000386        0.00000686
     255         -0.847585        2.000000        0.00184537        0.00084636        0.00278080        0.00090161
     256         -0.845947        2.000000        0.00803333        0.00126654        0.00053744        0.00229100
     257         -0.845227        2.000000        0.00008419        0.00002628        0.00009072        0.00004033
     258         -0.842310        2.000000        0.01484545        0.00182397        0.00065939        0.00531895
     259         -0.840154        2.000000        0.00106033        0.00016393        0.00011181        0.00041248