# Projected DOS for atomic kind S at iteration step i = 0, E(Fermi) =    -0.385734 a.u.
#     MO Eigenvalue [a.u.]      Occupation                 s                py                pz                px               d-2               d-1                d0               d+1               d+2
       1         -1.938313        2.000000        0.00000817        0.00000289        0.00000180        0.00000355        0.00000004        0.00000003        0.00000013        0.00000002        0.00000002
       2         -1.862898        2.000000        0.00000702        0.00000652        0.00000208        0.00000483        0.00000002        0.00000000        0.00000001        0.00000001        0.00000003
       3         -1.787360        2.000000        0.00000545        0.00000179        0.00000067        0.00000173        0.00000002        0.00000002        0.00000006        0.00000003        0.00000002
       4         -1.760465        2.000000        0.00000085        0.00000057        0.00000061        0.00000045        0.00000003        0.00000002        0.00000003        0.00000003        0.00000001
       5         -1.750548        2.000000        0.00000561        0.00000107        0.00000122        0.00000312        0.00000001        0.00000001        0.00000005        0.00000003        0.00000001
       6         -1.716056        2.000000        0.00000210        0.00000022        0.00000093        0.00000066        0.00000009        0.00000004        0.00000002        0.00000009        0.00000003
       7         -1.698964        2.000000        0.00000118        0.00000011        0.00000081        0.00000069        0.00000004        0.00000000        0.00000001        0.00000006        0.00000001
       8         -1.688238        2.000000        0.00026883        0.00009319        0.00010489        0.00012247        0.00000148        0.00000236        0.00000029        0.00000358        0.00000256
       9         -1.673894        2.000000        0.00000952        0.00001192        0.00000259        0.00001662        0.00000037        0.00000034        0.00000034        0.00000026        0.00000012
      10         -1.668790        2.000000        0.00000169        0.00000024        0.00000051        0.00000041        0.00000002        0.00000002        0.00000001        0.00000002        0.00000000
      11         -1.654758        2.000000        0.00000137        0.00000234        0.00000067        0.00000387        0.00000006        0.00000008        0.00000006        0.00000005        0.00000002
      12         -1.650097        2.000000        0.00000083        0.00000026        0.00000080        0.00000088        0.00000002        0.00000001        0.00000001        0.00000004        0.00000001
      13         -1.647301        2.000000        0.00016642        0.00008419        0.00007909        0.00009151        0.00000137        0.00000230        0.00000018        0.00000303        0.00000234
      14         -1.644831        2.000000        0.00000179        0.00000438        0.00000090        0.00000680        0.00000024        0.00000016        0.00000013        0.00000018        0.00000018
      15         -1.632971        2.000000        0.00000040        0.00000047        0.00000058        0.00000114        0.00000004        0.00000005        0.00000003        0.00000002        0.00000003
      16         -1.608182        2.000000        0.00000270        0.00000287        0.00000115        0.00000700        0.00000006        0.00000007        0.00000008        0.00000003        0.00000002
      17         -1.600464        2.000000        0.00008927        0.00002721        0.00001046        0.00005688        0.00000064        0.00000039        0.00000031        0.00000065        0.00000108
      18         -1.596002        2.000000        0.00000619        0.00000079        0.00000082        0.00000266        0.00000014        0.00000015        0.00000009        0.00000026        0.00000005
      19         -1.579249        2.000000        0.00000107        0.00000057        0.00000076        0.00000250        0.00000004        0.00000004        0.00000002        0.00000002        0.00000001
      20         -1.561803        2.000000        0.00012081        0.00004973        0.00000638        0.00004130        0.00000082        0.00000024        0.00000049        0.00000029        0.00000082
      21         -1.551568        2.000000        0.00000210        0.00000084        0.00000056        0.00000468        0.00000014        0.00000008        0.00000003        0.00000013        0.00000004
      22         -1.542873        2.000000        0.00000067        0.00000018        0.00000075        0.00000217        0.00000003        0.00000003        0.00000001        0.00000002        0.00000002
      23         -1.540810        2.000000        0.00000230        0.00000289        0.00000227        0.00002059        0.00000002        0.00000003        0.00000003        0.00000007        0.00000008
      24         -1.527261        2.000000        0.00174560        0.00111765        0.00110469        0.00147060        0.00002646        0.00005488        0.00000214        0.00006829        0.00006909
      25         -1.526414        2.000000        0.00001323        0.00001962        0.00001533        0.00002156        0.00000023        0.00000070        0.00000020        0.00000080        0.00000088
      26         -1.517554        2.000000        0.00000073        0.00000056        0.00000232        0.00000190        0.00000005        0.00000002        0.00000005        0.00000006        0.00000005
      27         -1.515591        2.000000        0.00000438        0.00001604        0.00000359        0.00002527        0.00000002        0.00000001        0.00000005        0.00000005        0.00000004
      28         -1.511020        2.000000        0.00006005        0.00002541        0.00000062        0.00002294        0.00000048        0.00000009        0.00000026        0.00000006        0.00000040
      29         -1.504237        2.000000        0.00000287        0.00000334        0.00000379        0.00002236        0.00000006        0.00000001        0.00000004        0.00000005        0.00000007
      30         -1.491784        2.000000        0.00000680        0.00000206        0.00000206        0.00001432        0.00000003        0.00000004        0.00000011        0.00000003        0.00000003
      31         -1.486668        2.000000        0.00000108        0.00000329        0.00000308        0.00001325        0.00000003        0.00000001        0.00000003        0.00000004        0.00000002
      32         -1.483611        2.000000        0.00049253        0.00022711        0.00027169        0.00044775        0.00000399        0.00001095        0.00000123        0.00002578        0.00002605
      33         -1.475578        2.000000        0.00000516        0.00000606        0.00000220        0.00000927        0.00000001        0.00000002        0.00000004        0.00000002        0.00000007
      34         -1.463067        2.000000        0.00000031        0.00000036        0.00000028        0.00000246        0.00000002        0.00000001        0.00000003        0.00000002        0.00000004
      35         -1.457711        2.000000        0.02389485        0.01550247        0.01073549        0.01575915        0.00041469        0.00089829        0.00011487        0.00092154        0.00117097
      36         -1.457216        2.000000        0.00000884        0.00001858        0.00000533        0.00001421        0.00000016        0.00000037        0.00000004        0.00000041        0.00000033
      37         -1.450993        2.000000        0.00000340        0.00000141        0.00000115        0.00000284        0.00000002        0.00000004        0.00000001        0.00000005        0.00000009
      38         -1.449790        2.000000        0.00046533        0.00020906        0.00024234        0.00027321        0.00000500        0.00000820        0.00000001        0.00000901        0.00000605
      39         -1.449110        2.000000        0.00236667        0.00130905        0.00104394        0.00188113        0.00002924        0.00007555        0.00001396        0.00012440        0.00015042
      40         -1.433073        2.000000        0.00000195        0.00000162        0.00000123        0.00000828        0.00000001        0.00000003        0.00000002        0.00000001        0.00000006
      41         -1.430919        2.000000        0.00000036        0.00000016        0.00000051        0.00000209        0.00000001        0.00000002        0.00000004        0.00000004        0.00000001
      42         -1.411594        2.000000        0.00000062        0.00000424        0.00000321        0.00001147        0.00000005        0.00000002        0.00000004        0.00000009        0.00000003
      43         -1.411369        2.000000        0.00000165        0.00000356        0.00000235        0.00001673        0.00000009        0.00000003        0.00000003        0.00000002        0.00000002
      44         -1.405424        2.000000        0.00000587        0.00000585        0.00000390        0.00002760        0.00000005        0.00000003        0.00000008        0.00000007        0.00000002
      45         -1.404708        2.000000        0.00000243        0.00000060        0.00000193        0.00000174        0.00000001        0.00000001        0.00000006        0.00000008        0.00000001
      46         -1.402834        2.000000        0.00065803        0.00039757        0.00038154        0.00039391        0.00003320        0.00002938        0.00000169        0.00002838        0.00001041
      47         -1.399770        2.000000        0.00000068        0.00000145        0.00000141        0.00000697        0.00000004        0.00000005        0.00000002        0.00000005        0.00000001
      48         -1.389987        2.000000        0.00000250        0.00000344        0.00000371        0.00001264        0.00000009        0.00000009        0.00000004        0.00000010        0.00000002
      49         -1.381422        2.000000        0.00000265        0.00000105        0.00000168        0.00000529        0.00000001        0.00000002        0.00000002        0.00000001        0.00000004
      50         -1.370606        2.000000        0.00167515        0.00092692        0.00026195        0.00063672        0.00002439        0.00004743        0.00001786        0.00004089        0.00007151
      51         -1.369414        2.000000        0.00000860        0.00000985        0.00000555        0.00000941        0.00000004        0.00000001        0.00000003        0.00000006        0.00000001
      52         -1.368873        2.000000        0.00168294        0.00114766        0.00085719        0.00112538        0.00003564        0.00005759        0.00000353        0.00004667        0.00004441
      53         -1.366658        2.000000        0.00077144        0.00039210        0.00028645        0.00029976        0.00003229        0.00002934        0.00000379        0.00002153        0.00001249
      54         -1.366386        2.000000        0.00023432        0.00012431        0.00006804        0.00008829        0.00000904        0.00000814        0.00000083        0.00000639        0.00000336
      55         -1.359278        2.000000        0.00000102        0.00000162        0.00000261        0.00000876        0.00000004        0.00000009        0.00000007        0.00000017        0.00000009
      56         -1.355798        2.000000        0.00000309        0.00000322        0.00000199        0.00000352        0.00000002        0.00000006        0.00000003        0.00000004        0.00000005
      57         -1.343372        2.000000        0.00011102        0.00006520        0.00002875        0.00000859        0.00000087        0.00000119        0.00000006        0.00000044        0.00000012
      58         -1.341640        2.000000        0.00000076        0.00000023        0.00000119        0.00000320        0.00000005        0.00000002        0.00000002        0.00000011        0.00000002
      59         -1.338016        2.000000        0.00000152        0.00000040        0.00000273        0.00000546        0.00000003        0.00000004        0.00000017        0.00000015        0.00000003
      60         -1.334641        2.000000        0.00000102        0.00000183        0.00000113        0.00000031        0.00000003        0.00000005        0.00000004        0.00000008        0.00000005
      61         -1.332829        2.000000        0.01572523        0.01061667        0.00642453        0.00930549        0.00033655        0.00056590        0.00006561        0.00041989        0.00045606
      62         -1.329830        2.000000        0.00000892        0.00000477        0.00000519        0.00000988        0.00000017        0.00000028        0.00000008        0.00000036        0.00000021
      63         -1.328729        2.000000        0.00024610        0.00025887        0.00001580        0.00015259        0.00000651        0.00000106        0.00000244        0.00000223        0.00000497
      64         -1.322162        2.000000        0.00000096        0.00000303        0.00000181        0.00000308        0.00000006        0.00000008        0.00000003        0.00000012        0.00000003
      65         -1.319100        2.000000        0.00001322        0.00000840        0.00000353        0.00000996        0.00000043        0.00000059        0.00000012        0.00000023        0.00000018
      66         -1.318526        2.000000        0.00133481        0.00091576        0.00048041        0.00068045        0.00003068        0.00005071        0.00000674        0.00002897        0.00003348
      67         -1.313549        2.000000        0.02458321        0.00768849        0.00350879        0.00312374        0.00050465        0.00050230        0.00010551        0.00026196        0.00023367
      68         -1.304222        2.000000        0.00002551        0.00011645        0.00005209        0.00009897        0.00000008        0.00000002        0.00000005        0.00000018        0.00000004
      69         -1.297982        2.000000        0.00000567        0.00000409        0.00000187        0.00001458        0.00000009        0.00000011        0.00000005        0.00000018        0.00000017
      70         -1.297812        2.000000        0.00000278        0.00000209        0.00000154        0.00000388        0.00000004        0.00000035        0.00000005        0.00000014        0.00000008
      71         -1.294084        2.000000        0.00001628        0.00002145        0.00000784        0.00001109        0.00000042        0.00000099        0.00000025        0.00000089        0.00000066
      72         -1.292383        2.000000        0.01163573        0.00688213        0.00312343        0.00561118        0.00019715        0.00036941        0.00007958        0.00028496        0.00036690
      73         -1.290824        2.000000        0.00000203        0.00002617        0.00001176        0.00001170        0.00000003        0.00000009        0.00000005        0.00000008        0.00000018
      74         -1.288305        2.000000        0.01381858        0.00359612        0.00185048        0.00817330        0.00024761        0.00018411        0.00020280        0.00070788        0.00061254
      75         -1.277634        2.000000        0.00000466        0.00001869        0.00000760        0.00001891        0.00000008        0.00000002        0.00000004        0.00000007        0.00000004
      76         -1.274738        2.000000        0.00000031        0.00000111        0.00000024        0.00000024        0.00000005        0.00000004        0.00000004        0.00000003        0.00000006
      77         -1.269182        2.000000        0.00369817        0.00182756        0.00077707        0.00168254        0.00004143        0.00009014        0.00002722        0.00009452        0.00012169
      78         -1.267929        2.000000        0.01456632        0.00120993        0.00173467        0.00401553        0.00022186        0.00007642        0.00000343        0.00034839        0.00027750
      79         -1.267030        2.000000        0.00001980        0.00003862        0.00002351        0.00002286        0.00000020        0.00000011        0.00000004        0.00000102        0.00000044
      80         -1.265209        2.000000        0.00000214        0.00000173        0.00000082        0.00000393        0.00000031        0.00000008        0.00000009        0.00000010        0.00000022
      81         -1.262566        2.000000        0.00000215        0.00000169        0.00000300        0.00000168        0.00000007        0.00000008        0.00000006        0.00000022        0.00000005
      82         -1.251160        2.000000        0.00000167        0.00000527        0.00000315        0.00000475        0.00000002        0.00000005        0.00000006        0.00000005        0.00000004
      83         -1.250995        2.000000        0.00001816        0.00006796        0.00003254        0.00005002        0.00000006        0.00000007        0.00000003        0.00000044        0.00000005
      84         -1.239581        2.000000        0.00000074        0.00000017        0.00000057        0.00000028        0.00000005        0.00000006        0.00000003        0.00000004        0.00000004
      85         -1.232838        2.000000        0.00000125        0.00000328        0.00000291        0.00000277        0.00000007        0.00000003        0.00000011        0.00000007        0.00000018
      86         -1.230556        2.000000        0.00001328        0.00000356        0.00000101        0.00000195        0.00000007        0.00000005        0.00000010        0.00000012        0.00000009
      87         -1.229643        2.000000        0.00009545        0.00001146        0.00000289        0.00001030        0.00000016        0.00000028        0.00000037        0.00000038        0.00000138
      88         -1.229155        2.000000        0.00275640        0.00108970        0.00034869        0.00119845        0.00001656        0.00004635        0.00002866        0.00008790        0.00011153
      89         -1.228655        2.000000        0.05955780        0.00443342        0.00066149        0.00076626        0.00008428        0.00002085        0.00015279        0.00014216        0.00024968
      90         -1.226676        2.000000        0.00108489        0.00021378        0.00042960        0.00132947        0.00001054        0.00000144        0.00000714        0.00011074        0.00010094
      91         -1.221221        2.000000        0.00000861        0.00000117        0.00000132        0.00000096        0.00000010        0.00000009        0.00000006        0.00000016        0.00000007
      92         -1.216157        2.000000        0.10736596        0.00653443        0.00051826        0.00164708        0.00014571        0.00001122        0.00029424        0.00038117        0.00068340
      93         -1.211884        2.000000        0.00275012        0.00019945        0.00104764        0.00288055        0.00005198        0.00001317        0.00000273        0.00025318        0.00020396
      94         -1.210558        2.000000        0.00001987        0.00002686        0.00001195        0.00001253        0.00000072        0.00000024        0.00000052        0.00000053        0.00000026
      95         -1.208642        2.000000        0.06639120        0.01143198        0.00112674        0.01096959        0.00035205        0.00032266        0.00056289        0.00080652        0.00028752
      96         -1.207305        2.000000        0.00000259        0.00000094        0.00000082        0.00000081        0.00000002        0.00000013        0.00000011        0.00000017        0.00000020
      97         -1.202454        2.000000        0.00002531        0.00004345        0.00002364        0.00005237        0.00000004        0.00000009        0.00000018        0.00000016        0.00000026
      98         -1.195706        2.000000        0.03022518        0.00321135        0.00118038        0.00391008        0.00041082        0.00013213        0.00011656        0.00024040        0.00057155
      99         -1.194322        2.000000        0.00000763        0.00000392        0.00000110        0.00000377        0.00000029        0.00000017        0.00000009        0.00000015        0.00000026
     100         -1.189576        2.000000        0.00000174        0.00000090        0.00000082        0.00000106        0.00000018        0.00000008        0.00000003        0.00000011        0.00000012
     101         -1.183128        2.000000        0.00000112        0.00000054        0.00000027        0.00000053        0.00000008        0.00000007        0.00000006        0.00000004        0.00000009
     102         -1.173548        2.000000        0.00001931        0.00000143        0.00000239        0.00001549        0.00000028        0.00000033        0.00000027        0.00000103        0.00000116
     103         -1.172726        2.000000        0.00135979        0.00007289        0.00020717        0.00082057        0.00001717        0.00000528        0.00000056        0.00006433        0.00005935
     104         -1.172601        2.000000        0.01451773        0.00074106        0.00251545        0.00887049        0.00019781        0.00005899        0.00000622        0.00073255        0.00068373
     105         -1.170339        2.000000        0.00001034        0.00001404        0.00000608        0.00001930        0.00000022        0.00000009        0.00000013        0.00000015        0.00000028
     106         -1.167024        2.000000        0.04229860        0.01412524        0.00107337        0.01873440        0.00084769        0.00042531        0.00031216        0.00014813        0.00097920
     107         -1.165006        2.000000        0.00000669        0.00000419        0.00000086        0.00000290        0.00000028        0.00000009        0.00000010        0.00000014        0.00000044
     108         -1.159016        2.000000        0.00000355        0.00000851        0.00000402        0.00000394        0.00000004        0.00000003        0.00000002        0.00000007        0.00000005
     109         -1.155927        2.000000        0.00000960        0.00000136        0.00000133        0.00000247        0.00000006        0.00000024        0.00000018        0.00000026        0.00000025
     110         -1.151809        2.000000        0.00000552        0.00000240        0.00000086        0.00000255        0.00000009        0.00000011        0.00000014        0.00000005        0.00000028
     111         -1.147577        2.000000        0.00017583        0.00002008        0.00000311        0.00000856        0.00000047        0.00000090        0.00000020        0.00000059        0.00000031
     112         -1.145954        2.000000        0.08601825        0.00957040        0.00213981        0.00351229        0.00024455        0.00036482        0.00017362        0.00031005        0.00009400
     113         -1.143270        2.000000        0.00001699        0.00000551        0.00000129        0.00000430        0.00000004        0.00000007        0.00000005        0.00000007        0.00000007
     114         -1.140707        2.000000        0.11777570        0.01125844        0.00122311        0.00971251        0.00028607        0.00020771        0.00021719        0.00045872        0.00057604
     115         -1.136261        2.000000        0.00220369        0.00113077        0.00107012        0.00118021        0.00001342        0.00008164        0.00000112        0.00005650        0.00004945
     116         -1.135050        2.000000        0.00001432        0.00000784        0.00000589        0.00001355        0.00000020        0.00000007        0.00000028        0.00000058        0.00000013
     117         -1.134519        2.000000        0.01851551        0.00443529        0.00110846        0.00937185        0.00089670        0.00046702        0.00037009        0.00074108        0.00096562
     118         -1.134294        2.000000        0.00159782        0.00036380        0.00010171        0.00067544        0.00007728        0.00004180        0.00003218        0.00006098        0.00008198
     119         -1.129474        2.000000        0.00000339        0.00000429        0.00000509        0.00000516        0.00000048        0.00000019        0.00000015        0.00000037        0.00000016
     120         -1.125909        2.000000        0.03926533        0.00651924        0.00199845        0.03646798        0.00032601        0.00001081        0.00014963        0.00092404        0.00293444
     121         -1.125224        2.000000        0.00012525        0.00002233        0.00000436        0.00008469        0.00000150        0.00000022        0.00000041        0.00000260        0.00000763
     122         -1.124470        2.000000        0.05614862        0.00749388        0.00058842        0.00308483        0.00005709        0.00008843        0.00029601        0.00054994        0.00007901
     123         -1.119116        2.000000        0.00278558        0.00011864        0.00010694        0.00060398        0.00000690        0.00000163        0.00000169        0.00004152        0.00005848
     124         -1.117416        2.000000        0.00000283        0.00000214        0.00000063        0.00000133        0.00000032        0.00000022        0.00000011        0.00000016        0.00000043
     125         -1.114567        2.000000        0.00000195        0.00000072        0.00000046        0.00000085        0.00000012        0.00000008        0.00000017        0.00000022        0.00000007
     126         -1.112757        2.000000        0.00000173        0.00000403        0.00000081        0.00000163        0.00000018        0.00000006        0.00000010        0.00000014        0.00000011
     127         -1.111710        2.000000        0.00719778        0.00340607        0.00030577        0.00251635        0.00054385        0.00004421        0.00006398        0.00012161        0.00044954
     128         -1.107244        2.000000        0.00073871        0.00039873        0.00033230        0.00036184        0.00000806        0.00002580        0.00000185        0.00001663        0.00001810
     129         -1.107176        2.000000        0.00000307        0.00000648        0.00000297        0.00000187        0.00000007        0.00000004        0.00000010        0.00000013        0.00000010
     130         -1.106786        2.000000        0.00000351        0.00000090        0.00000086        0.00000081        0.00000018        0.00000016        0.00000011        0.00000020        0.00000024
     131         -1.103906        2.000000        0.06760513        0.01806125        0.00183180        0.02102253        0.00048032        0.00053154        0.00033757        0.00011671        0.00154460
     132         -1.101573        2.000000        0.00000363        0.00001096        0.00000456        0.00000244        0.00000008        0.00000004        0.00000007        0.00000007        0.00000011
     133         -1.099223        2.000000        0.00000125        0.00000087        0.00000121        0.00000055        0.00000012        0.00000020        0.00000013        0.00000012        0.00000012
     134         -1.092395        2.000000        0.00355364        0.00185594        0.00009166        0.00052223        0.00016867        0.00007351        0.00004433        0.00004180        0.00019789
     135         -1.090563        2.000000        0.00004263        0.00000581        0.00000496        0.00000636        0.00000138        0.00000021        0.00000028        0.00000030        0.00000098
     136         -1.086614        2.000000        0.07279340        0.02553849        0.00214984        0.01306803        0.00060915        0.00100496        0.00054873        0.00107124        0.00070337
     137         -1.084483        2.000000        0.00000402        0.00000117        0.00000500        0.00000222        0.00000019        0.00000006        0.00000009        0.00000022        0.00000012
     138         -1.078929        2.000000        0.00418550        0.00018775        0.00013168        0.00011071        0.00001373        0.00001057        0.00000668        0.00004686        0.00003619
     139         -1.077763        2.000000        0.12759875        0.00623815        0.00301146        0.00334388        0.00040840        0.00032170        0.00023308        0.00146763        0.00090868
     140         -1.075994        2.000000        0.00011107        0.00000695        0.00000264        0.00000430        0.00000038        0.00000037        0.00000065        0.00000069        0.00000106
     141         -1.075123        2.000000        0.04934486        0.01082352        0.00354364        0.01122497        0.00200357        0.00125948        0.00016341        0.00251594        0.00023608
     142         -1.072366        2.000000        0.00607439        0.00541416        0.00360936        0.00730800        0.00038842        0.00068701        0.00003662        0.00046371        0.00053664
     143         -1.071672        2.000000        0.00006545        0.00001084        0.00000393        0.00002568        0.00000027        0.00000024        0.00000027        0.00000034        0.00000013
     144         -1.068221        2.000000        0.00001054        0.00000876        0.00001260        0.00001693        0.00000029        0.00000013        0.00000010        0.00000007        0.00000010