#     Step Nr.          Time[fs]        Kin.[a.u.]          Temp[K]            Pot.[a.u.]        Cons Qty[a.u.]        UsedTime[s]
         0            0.000000         0.591402765       300.000000000       -14.517069178       -13.925666413         0.000000000
        10           25.000000         0.590967965       299.779439425       -14.515619974       -13.925764294         0.013087075
        20           50.000000         0.565328152       286.773169703       -14.490714654       -13.926003091         0.012935806
        30           75.000000         0.513362211       260.412484047       -14.441151833       -13.926306433         0.012977350
        40          100.000000         0.456669133       231.653871167       -14.382611401       -13.926610139         0.012999091
        50          125.000000         0.413981361       209.999708356       -14.336545349       -13.926877959         0.012938981
        60          150.000000         0.394315581       200.023877402       -14.313483407       -13.927100666         0.012945350
        70          175.000000         0.390491345       198.083962860       -14.309839619       -13.927288445         0.012926640
        80          200.000000         0.396657074       201.211643225       -14.314757933       -13.927459248         0.012942257
        90          225.000000         0.399557373       202.682873283       -14.319729295       -13.927636052         0.012935929
       100          250.000000         0.402480659       204.165764462       -14.322381812       -13.927837426         0.012924776
       110          275.000000         0.400628582       203.226264076       -14.322737268       -13.928061958         0.012964008
       120          300.000000         0.400334819       203.077247402       -14.321579938       -13.928295337         0.012909766
       130          325.000000         0.396351487       201.056628680       -14.317910743       -13.928512559         0.012870968
       140          350.000000         0.390946473       198.314834923       -14.312868674       -13.928698683         0.012911850
       150          375.000000         0.387909307       196.774176368       -14.309347456       -13.928851787         0.012951064
       160          400.000000         0.389123284       197.389988713       -14.309417921       -13.928983497         0.012940169
       170          425.000000         0.392568572       199.137674645       -14.311763709       -13.929112202         0.012965299
       180          450.000000         0.394101546       199.915304082       -14.312117226       -13.929240495         0.012939772
       190          475.000000         0.393189063       199.452430569       -14.309841346       -13.929357201         0.012905126
       200          500.000000         0.394057490       199.892956117       -14.309198362       -13.929449903         0.061941480
       210          525.000000         0.396107188       200.932703555       -14.311080132       -13.929503167         0.012935088
       220          550.000000         0.398381315       202.086296299       -14.313589369       -13.929509624         0.012928005
       230          575.000000         0.399131983       202.467086589       -14.317001165       -13.929480509         0.013788837
       240          600.000000         0.401896599       203.869489362       -14.320699481       -13.929428052         0.012932233
       250          625.000000         0.403123542       204.491878937       -14.322347496       -13.929359688         0.013007885
       260          650.000000         0.403186346       204.523737047       -14.321724935       -13.929283098         0.012918234
       270          675.000000         0.400815192       203.320925645       -14.320116250       -13.929205025         0.012950249
       280          700.000000         0.402864873       204.360664041       -14.320113898       -13.929133093         0.012983847
       290          725.000000         0.408978849       207.462091540       -14.323491537       -13.929068806         0.015304532
       300          750.000000         0.412333468       209.163784367       -14.326963360       -13.929001894         0.013857534
       310          775.000000         0.411856013       208.921586480       -14.326109418       -13.928919377         0.012946919
       320          800.000000         0.405076091       205.482345399       -14.320534321       -13.928817667         0.012931917
       330          825.000000         0.399537230       202.672655854       -14.313341040       -13.928701575         0.012977162
       340          850.000000         0.395425407       200.586857339       -14.307607862       -13.928584017         0.012938919
       350          875.000000         0.392840037       199.275380588       -14.303529924       -13.928479107         0.012941704
       360          900.000000         0.389430806       197.545984878       -14.300961363       -13.928396893         0.013192459
       370          925.000000         0.388100311       196.871066751       -14.301315320       -13.928346874         0.012881696
       380          950.000000         0.390317372       197.995712171       -14.303467430       -13.928324103         0.012867743
       390          975.000000         0.393763743       199.743947540       -14.305198376       -13.928320657         0.012911579
       400         1000.000000         0.395488943       200.619087051       -14.307065625       -13.928332166         0.012914506
       410         1025.000000         0.400607887       203.215766349       -14.310178349       -13.928357533         0.013771628
       420         1050.000000         0.400764128       203.295022595       -14.311566974       -13.928386964         0.012903606
       430         1075.000000         0.397566546       201.672989506       -14.308796931       -13.928409734         0.012900257
       440         1100.000000         0.392607752       199.157549820       -14.303588049       -13.928422002         0.012936125
       450         1125.000000         0.388195815       196.919513025       -14.299570401       -13.928420540         0.012934121
       460         1150.000000         0.387560515       196.597245091       -14.300504169       -13.928408302         0.012880704
       470         1175.000000         0.390704006       198.191839288       -14.304912644       -13.928391095         0.013460790
       480         1200.000000         0.393788238       199.756373241       -14.308075913       -13.928374425         0.012907674
       490         1225.000000         0.396432374       201.097659824       -14.309189489       -13.928368333         0.012857323
       500         1250.000000         0.396632033       201.198940849       -14.308185350       -13.928368746         0.012888907
       510         1275.000000         0.395921677       200.838599191       -14.306326981       -13.928368179         0.012918975
       520         1300.000000         0.394966245       200.353938699       -14.305178072       -13.928363769         0.012928096
       530         1325.000000         0.394209348       199.969988702       -14.304913510       -13.928356766         0.013763415
       540         1350.000000         0.393905391       199.815800799       -14.305158312       -13.928355377         0.012889942
       550         1375.000000         0.393131748       199.423356271       -14.304626338       -13.928363646         0.012875308
       560         1400.000000         0.391692951       198.693499932       -14.302698565       -13.928387022         0.012919857
       570         1425.000000         0.388180392       196.911689478       -14.299361158       -13.928426364         0.012833259
       580         1450.000000         0.387400908       196.516281598       -14.297695601       -13.928483440         0.012857398
       590         1475.000000         0.393432661       199.575999912       -14.302113015       -13.928568107         0.012885030
       600         1500.000000         0.398259635       202.024572139       -14.309378388       -13.928681389         0.012866881
       610         1525.000000         0.398261361       202.025447304       -14.312067707       -13.928815197         0.012888368
       620         1550.000000         0.398105571       201.946420300       -14.309214949       -13.928958340         0.013412134
       630         1575.000000         0.392444753       199.074865195       -14.305409654       -13.929101371         0.012905306
       640         1600.000000         0.391294960       198.491611471       -14.304091338       -13.929228837         0.012873426
       650         1625.000000         0.395043150       200.392950320       -14.305687672       -13.929337292         0.012876280
       660         1650.000000         0.395782082       200.767787236       -14.304618183       -13.929410838         0.012964675
       670         1675.000000         0.390461242       198.068692557       -14.300723116       -13.929448614         0.012865414
       680         1700.000000         0.389277203       197.468066807       -14.299757739       -13.929465230         0.013680533
       690         1725.000000         0.395783007       200.768256557       -14.301769799       -13.929456623         0.012899459
       700         1750.000000         0.399621615       202.715461348       -14.303979061       -13.929424200         0.012872708
       710         1775.000000         0.400015510       202.915272068       -14.304093689       -13.929373894         0.012912161
       720         1800.000000         0.399500129       202.653835413       -14.303623684       -13.929319942         0.012874769
       730         1825.000000         0.402781580       204.318412093       -14.305733315       -13.929279665         0.012922963
       740         1850.000000         0.404261349       205.069052230       -14.307553808       -13.929252177         0.012895609
       750         1875.000000         0.402847855       204.352031391       -14.306108050       -13.929229733         0.012901683
       760         1900.000000         0.398947741       202.373626303       -14.303896678       -13.929210428         0.012930652
       770         1925.000000         0.400612617       203.218165808       -14.304307652       -13.929192431         0.012912455
       780         1950.000000         0.406065047       205.984011771       -14.308728726       -13.929179678         0.012857392
       790         1975.000000         0.412611854       209.305000728       -14.315961427       -13.929176612         0.012895094
       800         2000.000000         0.420497334       213.305056493       -14.322147844       -13.929178429         0.012927016
       810         2025.000000         0.424621285       215.397006693       -14.324589076       -13.929179720         0.012877382
       820         2050.000000         0.420897532       213.508064182       -14.323095718       -13.929171975         0.012911974
       830         2075.000000         0.415645674       210.843961974       -14.319177817       -13.929146449         0.012945529
       840         2100.000000         0.411477969       208.729816616       -14.314288441       -13.929096765         0.012951250
       850         2125.000000         0.410006675       207.983475551       -14.310914802       -13.929028044         0.012887926
       860         2150.000000         0.414022557       210.020605905       -14.313253840       -13.928959726         0.012985976
       870         2175.000000         0.425852797       216.021713932       -14.320265780       -13.928903466         0.012908942
       880         2200.000000         0.432598626       219.443660638       -14.324688093       -13.928862319         0.012939553
       890         2225.000000         0.430119608       218.186133108       -14.320960517       -13.928838170         0.012944959
       900         2250.000000         0.418307724       212.194336034       -14.310274482       -13.928829585         0.012880456
       910         2275.000000         0.409462969       207.707670409       -14.301888282       -13.928838873         0.012931677
       920         2300.000000         0.410314754       208.139754379       -14.303368885       -13.928866722         0.012887998
       930         2325.000000         0.419934942       213.019772628       -14.311158472       -13.928891715         0.012926684
       940         2350.000000         0.428298598       217.262392119       -14.321022855       -13.928908842         0.012922018
       950         2375.000000         0.437306664       221.831900337       -14.329590853       -13.928921696         0.012954134
       960         2400.000000         0.438507473       222.441032679       -14.331653712       -13.928927303         0.012940744
       970         2425.000000         0.432176296       219.229426207       -14.325845487       -13.928927995         0.012886741
       980         2450.000000         0.421158571       213.640480952       -14.315855165       -13.928933911         0.012924473
       990         2475.000000         0.412879184       209.440608565       -14.306349623       -13.928954154         0.012980211
      1000         2500.000000         0.409673101       207.814263753       -14.301633407       -13.929002955         0.012927156
      1010         2525.000000         0.409717308       207.836688725       -14.300994489       -13.929086760         0.012951983
      1020         2550.000000         0.407082144       206.499952798       -14.298571614       -13.929185400         0.012976342
      1030         2575.000000         0.405776932       205.837859970       -14.296605610       -13.929287970         0.012975407
      1040         2600.000000         0.409811733       207.884587335       -14.299301912       -13.929384378         0.012966351
      1050         2625.000000         0.415083192       210.558632697       -14.304953683       -13.929464335         0.012910134
      1060         2650.000000         0.420065332       213.085915369       -14.309843894       -13.929523501         0.012937780
      1070         2675.000000         0.421510502       213.819004367       -14.312363019       -13.929562512         0.012873557
      1080         2700.000000         0.425212435       215.696878404       -14.314163115       -13.929586954         0.012951402
      1090         2725.000000         0.429269713       217.755008131       -14.317186427       -13.929603389         0.012921890
      1100         2750.000000         0.433736985       220.021114327       -14.321856987       -13.929617509         0.012950208
      1110         2775.000000         0.440637630       223.521594232       -14.325790910       -13.929628663         0.012906415
      1120         2800.000000         0.440815821       223.611985098       -14.326227076       -13.929636485         0.012939362
      1130         2825.000000         0.439527333       222.958375380       -14.324414485       -13.929645187         0.012944017
      1140         2850.000000         0.440893722       223.651501607       -14.325616275       -13.929668934         0.012922543
      1150         2875.000000         0.443264531       224.854138299       -14.328656026       -13.929703144         0.012928827
      1160         2900.000000         0.441715289       224.068256607       -14.326618469       -13.929725190         0.012938248
      1170         2925.000000         0.435740423       221.037395617       -14.319074790       -13.929723768         0.012952115
      1180         2950.000000         0.429674662       217.960425696       -14.313372055       -13.929704749         0.012903705
      1190         2975.000000         0.432469707       219.378264024       -14.315744168       -13.929684191         0.013785550
      1200         3000.000000         0.440800131       223.604025725       -14.321221657       -13.929663634         0.013052161
      1210         3025.000000         0.441007673       223.709305508       -14.320814211       -13.929638911         0.012946801
      1220         3050.000000         0.430493467       218.375779764       -14.312301967       -13.929612424         0.012941177
      1230         3075.000000         0.417648955       211.860163610       -14.300293263       -13.929586948         0.013823349
      1240         3100.000000         0.408190265       207.062067903       -14.290539553       -13.929559350         0.012976798
      1250         3125.000000         0.404472544       205.176184993       -14.286365696       -13.929523501         0.012943709
      1260         3150.000000         0.406566996       206.238634647       -14.287915696       -13.929473796         0.012962492
      1270         3175.000000         0.411435001       208.708020132       -14.293512220       -13.929412394         0.012912161
      1280         3200.000000         0.419501609       212.799956584       -14.300123559       -13.929346769         0.012953100
      1290         3225.000000         0.423598085       214.877969762       -14.305227269       -13.929293799         0.012930289
      1300         3250.000000         0.427425942       216.819720967       -14.308056869       -13.929268521         0.012923698
      1310         3275.000000         0.427918323       217.069490336       -14.306542784       -13.929273974         0.012968674
      1320         3300.000000         0.420487039       213.299834252       -14.299026904       -13.929305289         0.012946853
      1330         3325.000000         0.410824840       208.398504963       -14.290817911       -13.929363078         0.012954056
      1340         3350.000000         0.406684481       206.298230924       -14.287945359       -13.929443786         0.012930216
      1350         3375.000000         0.409435260       207.693614644       -14.288815546       -13.929527728         0.012972119
      1360         3400.000000         0.413522845       209.767117915       -14.290193665       -13.929605552         0.012948904
      1370         3425.000000         0.416714221       211.386002500       -14.292017658       -13.929681264         0.012945206
      1380         3450.000000         0.421260652       213.692263575       -14.295808021       -13.929758553         0.012939571
      1390         3475.000000         0.425964539       216.078397510       -14.301417246       -13.929833972         0.012900350
      1400         3500.000000         0.430235724       218.245034803       -14.304316043       -13.929891237         0.012910151
      1410         3525.000000         0.430411674       218.334288954       -14.303008246       -13.929922343         0.012929658
      1420         3550.000000         0.427543310       216.879258224       -14.299468245       -13.929927788         0.012974706
      1430         3575.000000         0.424389633       215.279497079       -14.295569615       -13.929904725         0.012978397
      1440         3600.000000         0.424305802       215.236972495       -14.294410801       -13.929855380         0.012973583
      1450         3625.000000         0.428428076       217.328072120       -14.298453867       -13.929782390         0.012958859
      1460         3650.000000         0.436381736       221.362713225       -14.304749533       -13.929682101         0.012984874
      1470         3675.000000         0.438397442       222.385217269       -14.307114030       -13.929551430         0.012880344
      1480         3700.000000         0.432985355       219.639836331       -14.303668009       -13.929402012         0.012913406
      1490         3725.000000         0.427035892       216.621860732       -14.297446275       -13.929253945         0.012934941
      1500         3750.000000         0.423829061       214.995136418       -14.293233945       -13.929133497         0.012980140
      1510         3775.000000         0.421213149       213.668166872       -14.292394681       -13.929058687         0.012950792
      1520         3800.000000         0.422280714       214.209709107       -14.292327329       -13.929033226         0.012927424
      1530         3825.000000         0.419723198       212.912361690       -14.289805347       -13.929043360         0.012956390
      1540         3850.000000         0.413701050       209.857515629       -14.285627356       -13.929068781         0.012926145
      1550         3875.000000         0.412291432       209.142460843       -14.283438689       -13.929090248         0.012910883
      1560         3900.000000         0.412886746       209.444444686       -14.283986405       -13.929089832         0.012898474
      1570         3925.000000         0.415816498       210.930615807       -14.285039156       -13.929057140         0.012924474
      1580         3950.000000         0.417108337       211.585925105       -14.286746615       -13.928994498         0.012944172
      1590         3975.000000         0.424161189       215.163614876       -14.292081376       -13.928913854         0.012870596
      1600         4000.000000         0.429125959       217.682085909       -14.298041053       -13.928816745         0.012920096
      1610         4025.000000         0.433341431       219.820462081       -14.300123557       -13.928706351         0.012923889
      1620         4050.000000         0.435640087       220.986498259       -14.300152209       -13.928601628         0.012913358
      1630         4075.000000         0.439001469       222.691621576       -14.300393751       -13.928516791         0.012910123
      1640         4100.000000         0.436027182       221.182859314       -14.298364111       -13.928445473         0.012968640
      1650         4125.000000         0.434945069       220.633937135       -14.295368774       -13.928384289         0.012919208
      1660         4150.000000         0.433605539       219.954436059       -14.294231102       -13.928336999         0.012942381
      1670         4175.000000         0.432304483       219.294451131       -14.292490193       -13.928299679         0.012938960
      1680         4200.000000         0.428073026       217.147966565       -14.290925470       -13.928286493         0.012943352
      1690         4225.000000         0.430538332       218.398538632       -14.292775107       -13.928310336         0.012913219
      1700         4250.000000         0.437906126       222.135988472       -14.299700463       -13.928377163         0.012892038
      1710         4275.000000         0.447006845       226.752496642       -14.308063068       -13.928481652         0.012912230
      1720         4300.000000         0.455082673       230.849109861       -14.313705981       -13.928622783         0.012923031
      1730         4325.000000         0.457953790       232.305537173       -14.316460262       -13.928804012         0.012931139
      1740         4350.000000         0.458424141       232.544131463       -14.317244004       -13.929017135         0.012899336
      1750         4375.000000         0.456185895       231.408739648       -14.315920670       -13.929240843         0.012949975
      1760         4400.000000         0.452846471       229.714754782       -14.312167638       -13.929448407         0.014381421
      1770         4425.000000         0.445181311       225.826460483       -14.306391890       -13.929616551         0.012880771
      1780         4450.000000         0.439777950       223.085505804       -14.301465832       -13.929738024         0.012917890
      1790         4475.000000         0.439509839       222.949501371       -14.299145165       -13.929826789         0.012929251
      1800         4500.000000         0.435838897       221.087348050       -14.295913023       -13.929895296         0.012943169
      1810         4525.000000         0.430622082       218.441021965       -14.290442424       -13.929954734         0.012918998
      1820         4550.000000         0.425009774       215.594074945       -14.285202026       -13.930005347         0.012916660
      1830         4575.000000         0.420177418       213.142773250       -14.282522918       -13.930033446         0.012908980
      1840         4600.000000         0.422044635       214.089953518       -14.282955444       -13.930032066         0.012957278
      1850         4625.000000         0.421415194       213.770657959       -14.282020947       -13.929994353         0.012871118
      1860         4650.000000         0.416610900       211.333590857       -14.276016866       -13.929921339         0.012933584
      1870         4675.000000         0.415116894       210.575728624       -14.272940855       -13.929835501         0.012895589
      1880         4700.000000         0.424423372       215.296611705       -14.280697308       -13.929762001         0.012913917
      1890         4725.000000         0.433437273       219.869080165       -14.291989389       -13.929696109         0.012914371
      1900         4750.000000         0.443208292       224.825610375       -14.299325358       -13.929636904         0.012914798
      1910         4775.000000         0.446417242       226.453409313       -14.301045487       -13.929581735         0.012885435
      1920         4800.000000         0.448043798       227.278510034       -14.299961373       -13.929533847         0.013671348
      1930         4825.000000         0.447397706       226.950768031       -14.300317730       -13.929510421         0.012869664
      1940         4850.000000         0.453310316       229.950048923       -14.304074988       -13.929525578         0.012865869
      1950         4875.000000         0.459028527       232.850717404       -14.308170778       -13.929571089         0.012911518
      1960         4900.000000         0.462446169       234.584379390       -14.309535710       -13.929635009         0.012934643
      1970         4925.000000         0.458364816       232.514037398       -14.305602239       -13.929704799         0.012932884
      1980         4950.000000         0.448713285       227.618119998       -14.297473527       -13.929777887         0.012899365
      1990         4975.000000         0.441140005       223.776433250       -14.289203312       -13.929857957         0.012947180
      2000         5000.000000         0.434572318       220.444852539       -14.283349806       -13.929945630         0.012912403
      2010         5025.000000         0.431064744       218.665570504       -14.282483457       -13.930041845         0.012904420
      2020         5050.000000         0.434668599       220.493693051       -14.287883874       -13.930149311         0.012888543
      2030         5075.000000         0.441252394       223.833444749       -14.294255964       -13.930254361         0.012912558
      2040         5100.000000         0.442876432       224.657268042       -14.296130007       -13.930340731         0.012887742
      2050         5125.000000         0.443430746       224.938453955       -14.295392414       -13.930401999         0.012869055
      2060         5150.000000         0.448450112       227.484620565       -14.298950772       -13.930452389         0.012909353
      2070         5175.000000         0.453248920       229.918904425       -14.304262721       -13.930490014         0.012888483
      2080         5200.000000         0.456024042       231.326636712       -14.304640934       -13.930507361         0.012911122
      2090         5225.000000         0.450020706       228.281333464       -14.298308625       -13.930504978         0.012910935
      2100         5250.000000         0.438907942       222.644178140       -14.287541738       -13.930487830         0.012915372
      2110         5275.000000         0.429111546       217.674774973       -14.277394139       -13.930468187         0.012918392
      2120         5300.000000         0.422644425       214.394207949       -14.271587951       -13.930456672         0.012893154
      2130         5325.000000         0.421953574       214.043760896       -14.268251162       -13.930449175         0.012929142
      2140         5350.000000         0.422709478       214.427207416       -14.266897306       -13.930448830         0.012890746
      2150         5375.000000         0.427067546       216.637918097       -14.271018609       -13.930462759         0.079551018
      2160         5400.000000         0.439350039       222.868440119       -14.283966508       -13.930498923         0.012904011
      2170         5425.000000         0.455907160       231.267346269       -14.301278997       -13.930548747         0.012919572
      2180         5450.000000         0.468072192       237.438283599       -14.312236938       -13.930594645         0.012976621
      2190         5475.000000         0.470968031       238.907251699       -14.310032885       -13.930624873         0.012893160
      2200         5500.000000         0.457784623       232.219724024       -14.296711696       -13.930634722         0.012920843
      2210         5525.000000         0.441774285       224.098183727       -14.281748752       -13.930625889         0.012925159
      2220         5550.000000         0.432394898       219.340316170       -14.273047301       -13.930602100         0.012904273
      2230         5575.000000         0.431214659       218.741618099       -14.269729489       -13.930562092         0.018607704
      2240         5600.000000         0.430012826       218.131965723       -14.270624614       -13.930516505         0.012897586
      2250         5625.000000         0.434896040       220.609066621       -14.276566532       -13.930488867         0.013066084
      2260         5650.000000         0.439979129       223.187557542       -14.281995785       -13.930485353         0.012880246
      2270         5675.000000         0.441107345       223.759866109       -14.281630597       -13.930502936         0.012889648