
     Program PWSCF v.6.2 (svn rev. 14038) starts on 22Jun2021 at 18:55:49 

     This program is part of the open-source Quantum ESPRESSO suite
     for quantum simulation of materials; please cite
         "P. Giannozzi et al., J. Phys.:Condens. Matter 21 395502 (2009);
         "P. Giannozzi et al., J. Phys.:Condens. Matter 29 465901 (2017);
          URL http://www.quantum-espresso.org", 
     in publications or presentations arising from this work. More details at
     http://www.quantum-espresso.org/quote

     Parallel version (MPI), running on    12 processors

     MPI processes distributed on     1 nodes
     R & G space division:  proc/nbgrp/npool/nimage =      12
     Waiting for input...
     Reading input from standard input

     Current dimensions of program PWSCF are:
     Max number of different atomic species (ntypx) = 10
     Max number of k-points (npk) =  40000
     Max angular momentum in pseudopotentials (lmaxx) =  3
               file Ir.pbe-n-rrkjus_psl.0.2.3.UPF: wavefunction(s)  5D renormalized

     gamma-point specific algorithms are used

     Subspace diagonalization in iterative solution of the eigenvalue problem:
     a serial algorithm will be used

 
     Parallelization info
     --------------------
     sticks:   dense  smooth     PW     G-vecs:    dense   smooth      PW
     Min         353     140     34                17398     4383     546
     Max         356     144     36                17404     4390     556
     Sum        4257    1701    421               208801    52635    6619
 


     bravais-lattice index     =            0
     lattice parameter (alat)  =      13.3514  a.u.
     unit-cell volume          =    2380.0325 (a.u.)^3
     number of atoms/cell      =           25
     number of atomic types    =            4
     number of electrons       =        72.00
     number of Kohn-Sham states=          100
     kinetic-energy cutoff     =      30.0000  Ry
     charge density cutoff     =     300.0000  Ry
     convergence threshold     =      1.0E-04
     mixing beta               =       0.3000
     number of iterations used =            8  plain     mixing
     Exchange-correlation      = PBE ( 1  4  3  4 0 0)

     celldm(1)=  13.351425  celldm(2)=   0.000000  celldm(3)=   0.000000
     celldm(4)=   0.000000  celldm(5)=   0.000000  celldm(6)=   0.000000

     crystal axes: (cart. coord. in units of alat)
               a(1) = (   1.000000   0.000000   0.000000 )  
               a(2) = (   0.000000   1.000000   0.000000 )  
               a(3) = (   0.000000   0.000000   1.000000 )  

     reciprocal axes: (cart. coord. in units 2 pi/alat)
               b(1) = (  1.000000  0.000000  0.000000 )  
               b(2) = (  0.000000  1.000000  0.000000 )  
               b(3) = (  0.000000  0.000000  1.000000 )  


     PseudoPot. # 1 for C  read from file:
     /util/academic/espresso/6.2.1/pseudopotentials/upf_files/C.pbe-n-rrkjus_psl.0.1.UPF
     MD5 check sum: ab446d787031eba755f1d5ee46644bb0
     Pseudo is Ultrasoft + core correction, Zval =  4.0
     Generated using "atomic" code by A. Dal Corso v.5.0.2 svn rev. 9415
     Using radial grid of 1073 points,  4 beta functions with: 
                l(1) =   0
                l(2) =   0
                l(3) =   1
                l(4) =   1
     Q(r) pseudized with 0 coefficients 


     PseudoPot. # 2 for H  read from file:
     /util/academic/espresso/6.2.1/pseudopotentials/upf_files/H.pbe-rrkjus_psl.0.1.UPF
     MD5 check sum: bd57da0722753ddfd9833a65b40bb853
     Pseudo is Ultrasoft, Zval =  1.0
     Generated using "atomic" code by A. Dal Corso v.5.0.2 svn rev. 9415
     Using radial grid of  929 points,  2 beta functions with: 
                l(1) =   0
                l(2) =   0
     Q(r) pseudized with 0 coefficients 


     PseudoPot. # 3 for Ir read from file:
     /util/academic/espresso/6.2.1/pseudopotentials/upf_files/Ir.pbe-n-rrkjus_psl.0.2.3.UPF
     MD5 check sum: 0d5bc36db6a0bde07ee800c0d8fcbb77
     Pseudo is Ultrasoft + core correction, Zval =  9.0
     Generated using "atomic" code by A. Dal Corso v.5.0.2 svn rev. 9415
     Using radial grid of 1277 points,  6 beta functions with: 
                l(1) =   0
                l(2) =   0
                l(3) =   1
                l(4) =   1
                l(5) =   2
                l(6) =   2
     Q(r) pseudized with 0 coefficients 


     PseudoPot. # 4 for N  read from file:
     /util/academic/espresso/6.2.1/pseudopotentials/upf_files/N.pbe-n-rrkjus_psl.0.1.UPF
     MD5 check sum: ed8b6a90f28a53b7d71920e7015d2dd6
     Pseudo is Ultrasoft + core correction, Zval =  5.0
     Generated using "atomic" code by A. Dal Corso v.5.0.2 svn rev. 9415
     Using radial grid of 1085 points,  4 beta functions with: 
                l(1) =   0
                l(2) =   0
                l(3) =   1
                l(4) =   1
     Q(r) pseudized with 0 coefficients 


     atomic species   valence    mass     pseudopotential
        C              4.00    12.01000     C ( 1.00)
        H              1.00     1.00700     H ( 1.00)
        Ir             9.00   192.21700     Ir( 1.00)
        N              5.00    14.00600     N ( 1.00)

     No symmetry found



   Cartesian axes

     site n.     atom                  positions (alat units)
         1           Ir  tau(   1) = (   0.0001204   0.0042742   0.0013794  )
         2           N   tau(   2) = (   0.1339336  -0.2069723  -0.1720831  )
         3           N   tau(   3) = (  -0.2444042   0.0020167  -0.1741881  )
         4           N   tau(   4) = (   0.1245967   0.2160045  -0.1524004  )
         5           C   tau(   5) = (  -0.0747316   0.2255336   0.1512288  )
         6           C   tau(   6) = (   0.2089434  -0.0556171   0.1775917  )
         7           C   tau(   7) = (   0.2697021  -0.2747661  -0.0679306  )
         8           C   tau(   8) = (   0.3143856  -0.1998898   0.1126136  )
         9           C   tau(   9) = (  -0.1471680  -0.1793316   0.1455879  )
        10           C   tau(  10) = (   0.0804661   0.3853122  -0.1018198  )
        11           C   tau(  11) = (  -0.0043695   0.3926123   0.0886486  )
        12           C   tau(  12) = (  -0.3580472  -0.1261458  -0.1112734  )
        13           C   tau(  13) = (  -0.3086244  -0.2419732   0.0518204  )
        14           H   tau(  14) = (   0.2535083   0.0296216   0.3052469  )
        15           H   tau(  15) = (   0.4148659  -0.2698560   0.2097070  )
        16           H   tau(  16) = (   0.3744070  -0.3894523  -0.1073760  )
        17           H   tau(  17) = (   0.1018333   0.5127922  -0.1939521  )
        18           H   tau(  18) = (  -0.0152038   0.5408812   0.1513901  )
        19           H   tau(  19) = (  -0.1402458   0.2264110   0.2895247  )
        20           H   tau(  20) = (  -0.4031791  -0.3502221   0.1179437  )
        21           H   tau(  21) = (  -0.1049087  -0.2451884   0.2841916  )
        22           H   tau(  22) = (  -0.4980098  -0.1343497  -0.1897957  )
        23           H   tau(  23) = (   0.1192437  -0.2755627  -0.3014588  )
        24           H   tau(  24) = (   0.1848822   0.1929408  -0.2788586  )
        25           H   tau(  25) = (  -0.2747732   0.0781764  -0.2873075  )

     number of k points=     1  gaussian smearing, width (Ry)=  0.0100
                       cart. coord. in units 2pi/alat
        k(    1) = (   0.0000000   0.0000000   0.0000000), wk =   2.0000000

     Dense  grid:   104401 G-vectors     FFT dimensions: (  75,  75,  75)

     Smooth grid:    26318 G-vectors     FFT dimensions: (  48,  48,  48)

     Estimated max dynamical RAM per process >      46.16 MB

     Estimated total dynamical RAM >     553.92 MB

     Check: negative/imaginary core charge=   -0.000002    0.000000

     Initial potential from superposition of free atoms

     starting charge   71.99934, renormalised to   72.00000
     Starting wfc are   69 randomized atomic wfcs +   31 random wfc

     total cpu time spent up to now is        2.5 secs

     Self-consistent Calculation

     iteration #  1     ecut=    30.00 Ry     beta= 0.30
     Davidson diagonalization with overlap
     ethr =  1.00E-02,  avg # of iterations =  5.0

     total cpu time spent up to now is        2.9 secs

     total energy              =    -243.66630829 Ry
     Harris-Foulkes estimate   =    -244.88986033 Ry
     estimated scf accuracy    <       3.22888102 Ry

     iteration #  2     ecut=    30.00 Ry     beta= 0.30
     Davidson diagonalization with overlap
     ethr =  4.48E-03,  avg # of iterations =  1.0

     total cpu time spent up to now is        3.1 secs

     total energy              =    -243.74469595 Ry
     Harris-Foulkes estimate   =    -244.01746951 Ry
     estimated scf accuracy    <       0.75579895 Ry

     iteration #  3     ecut=    30.00 Ry     beta= 0.30
     Davidson diagonalization with overlap
     ethr =  1.05E-03,  avg # of iterations =  4.0

     total cpu time spent up to now is        3.3 secs

     total energy              =    -243.77540119 Ry
     Harris-Foulkes estimate   =    -243.86797729 Ry
     estimated scf accuracy    <       0.30666923 Ry

     iteration #  4     ecut=    30.00 Ry     beta= 0.30
     Davidson diagonalization with overlap
     ethr =  4.26E-04,  avg # of iterations =  2.0

     negative rho (up, down):  1.693E-07 0.000E+00

     total cpu time spent up to now is        3.5 secs

     total energy              =    -243.79465894 Ry
     Harris-Foulkes estimate   =    -243.81302947 Ry
     estimated scf accuracy    <       0.05503653 Ry

     iteration #  5     ecut=    30.00 Ry     beta= 0.30
     Davidson diagonalization with overlap
     ethr =  7.64E-05,  avg # of iterations =  7.0

     negative rho (up, down):  1.501E-07 0.000E+00

     total cpu time spent up to now is        3.9 secs

     total energy              =    -243.80340196 Ry
     Harris-Foulkes estimate   =    -243.80413440 Ry
     estimated scf accuracy    <       0.00457821 Ry

     iteration #  6     ecut=    30.00 Ry     beta= 0.30
     Davidson diagonalization with overlap
     ethr =  6.36E-06,  avg # of iterations =  2.0

     negative rho (up, down):  3.590E-08 0.000E+00

     total cpu time spent up to now is        4.1 secs

     total energy              =    -243.80382794 Ry
     Harris-Foulkes estimate   =    -243.80393471 Ry
     estimated scf accuracy    <       0.00084870 Ry

     iteration #  7     ecut=    30.00 Ry     beta= 0.30
     Davidson diagonalization with overlap
     ethr =  1.18E-06,  avg # of iterations =  6.0

     total cpu time spent up to now is        4.4 secs

     End of self-consistent calculation

          k = 0.0000 0.0000 0.0000 (  3310 PWs)   bands (ev):

   -18.6588 -18.2789 -18.1488 -14.4714 -13.8955 -13.7606 -11.4794 -10.8624
   -10.5715  -9.3174  -8.6851  -8.2338  -8.0479  -8.0262  -7.5391  -6.6603
    -5.9709  -5.8855  -5.4648  -5.2627  -5.0818  -4.7850  -4.3633  -4.1067
    -3.9450  -3.5886  -3.3923  -2.5431  -2.1649  -2.0629  -1.5430  -1.4986
    -1.2326  -0.3567  -0.1837   0.2156   1.9751   2.6086   3.0935   3.2477
     4.9357   5.0880   5.4412   5.5464   5.6575   5.7376   5.9907   6.1209
     6.6164   6.7328   7.1404   7.3028   7.7646   7.8680   8.1449   8.2599
     8.6373   8.9242   9.0285   9.1700   9.4420   9.7959   9.9390  10.6710
    10.7452  10.9284  11.1010  11.2326  11.5588  11.8209  11.8679  12.1546
    12.2264  12.4875  12.6596  12.7449  13.1326  13.3386  13.5051  13.8010
    13.9688  14.0898  14.2880  14.4173  14.5942  14.7465  14.9272  15.1058
    15.1835  15.2660  15.3603  15.7909  15.8576  15.9511  16.3043  16.5844
    16.6329  16.9108  17.0004  17.1624

     the Fermi energy is     0.9564 ev

!    total energy              =    -243.80397312 Ry
     Harris-Foulkes estimate   =    -243.80390294 Ry
     estimated scf accuracy    <       0.00007606 Ry

     The total energy is the sum of the following terms:

     one-electron contribution =    -344.34798810 Ry
     hartree contribution      =     196.32069800 Ry
     xc contribution           =     -93.34231858 Ry
     ewald contribution        =      -2.43436444 Ry
     smearing contrib. (-TS)   =      -0.00000000 Ry

     convergence has been achieved in   7 iterations

     Writing output data file x0.save
 
     init_run     :      0.35s CPU      0.41s WALL (       1 calls)
     electrons    :      1.88s CPU      1.99s WALL (       1 calls)

     Called by init_run:
     wfcinit      :      0.03s CPU      0.04s WALL (       1 calls)
     potinit      :      0.07s CPU      0.07s WALL (       1 calls)

     Called by electrons:
     c_bands      :      0.96s CPU      0.98s WALL (       7 calls)
     sum_band     :      0.43s CPU      0.44s WALL (       7 calls)
     v_of_rho     :      0.22s CPU      0.23s WALL (       8 calls)
     newd         :      0.27s CPU      0.29s WALL (       8 calls)
     mix_rho      :      0.03s CPU      0.03s WALL (       7 calls)

     Called by c_bands:
     init_us_2    :      0.00s CPU      0.00s WALL (      15 calls)
     regterg      :      0.95s CPU      0.97s WALL (       7 calls)

     Called by sum_band:
     sum_band:bec :      0.00s CPU      0.00s WALL (       7 calls)
     addusdens    :      0.30s CPU      0.31s WALL (       7 calls)

     Called by *egterg:
     h_psi        :      0.43s CPU      0.44s WALL (      35 calls)
     s_psi        :      0.01s CPU      0.01s WALL (      35 calls)
     g_psi        :      0.00s CPU      0.00s WALL (      27 calls)
     rdiaghg      :      0.41s CPU      0.42s WALL (      34 calls)

     Called by h_psi:
     h_psi:pot    :      0.43s CPU      0.44s WALL (      35 calls)
     h_psi:calbec :      0.02s CPU      0.02s WALL (      35 calls)
     vloc_psi     :      0.40s CPU      0.41s WALL (      35 calls)
     add_vuspsi   :      0.01s CPU      0.01s WALL (      35 calls)

     General routines
     calbec       :      0.02s CPU      0.02s WALL (      42 calls)
     fft          :      0.23s CPU      0.23s WALL (     124 calls)
     ffts         :      0.01s CPU      0.01s WALL (      15 calls)
     fftw         :      0.42s CPU      0.44s WALL (    2202 calls)
     interpolate  :      0.04s CPU      0.04s WALL (      15 calls)
 
     Parallel routines
     fft_scatt_xy :      0.04s CPU      0.04s WALL (    2341 calls)
     fft_scatt_yz :      0.13s CPU      0.13s WALL (    2341 calls)
 
     PWSCF        :     3.72s CPU         4.92s WALL

 
   This run was terminated on:  18:55:54  22Jun2021            

=------------------------------------------------------------------------------=
   JOB DONE.
=------------------------------------------------------------------------------=
