#     Step Nr.          Time[fs]        Kin.[a.u.]          Temp[K]            Pot.[a.u.]        Cons Qty[a.u.]        UsedTime[s]
         0            0.000000         0.591402765       300.000000000       -14.622995297       -14.031592532         0.000000000
        10           25.000000         0.590606567       299.596113830       -14.621192362       -14.031698368         0.012757567
        20           50.000000         0.564517156       286.361776791       -14.595858123       -14.031959549         0.012923241
        30           75.000000         0.513017217       260.237479436       -14.546792717       -14.032297554         0.012869668
        40          100.000000         0.458645804       232.656573995       -14.490618284       -14.032646360         0.012853902
        50          125.000000         0.419201073       212.647503849       -14.447840513       -14.032966756         0.012842794
        60          150.000000         0.401445812       203.640818954       -14.426733768       -14.033244586         0.012872187
        70          175.000000         0.397931747       201.858244455       -14.423481137       -14.033490190         0.012837794
        80          200.000000         0.404047691       204.960670668       -14.428420391       -14.033722112         0.012887650
        90          225.000000         0.408251330       207.093043903       -14.434799944       -14.033961509         0.012924920
       100          250.000000         0.414756349       210.392835526       -14.441123938       -14.034227263         0.012809256
       110          275.000000         0.417014044       211.538093119       -14.445734436       -14.034515947         0.012913579
       120          300.000000         0.420030942       213.068470231       -14.447984493       -14.034814231         0.013745213
       130          325.000000         0.419812045       212.957430785       -14.448221686       -14.035106442         0.012892014
       140          350.000000         0.418245616       212.162830540       -14.447191634       -14.035382707         0.012840214
       150          375.000000         0.416442982       211.248411223       -14.445078195       -14.035642183         0.012906394
       160          400.000000         0.414617507       210.322405205       -14.442260644       -14.035881801         0.012877331
       170          425.000000         0.416931448       211.496194901       -14.443624160       -14.036121173         0.012914283
       180          450.000000         0.418015495       212.046097573       -14.443661573       -14.036345753         0.012878470
       190          475.000000         0.412993724       209.498711435       -14.437369693       -14.036529080         0.012884184
       200          500.000000         0.409516797       207.734975728       -14.432444354       -14.036666149         0.012873676
       210          525.000000         0.409870295       207.914294155       -14.432704839       -14.036752716         0.012894029
       220          550.000000         0.411182640       208.580005418       -14.434326073       -14.036788265         0.012931376
       230          575.000000         0.411214520       208.596177268       -14.437132414       -14.036792884         0.012853420
       240          600.000000         0.416172929       211.111421832       -14.443125188       -14.036785906         0.012885602
       250          625.000000         0.422268349       214.203436439       -14.449753416       -14.036767806         0.012878434
       260          650.000000         0.428001658       217.111763676       -14.454901411       -14.036740544         0.012853896
       270          675.000000         0.431174824       218.721410657       -14.459003673       -14.036714097         0.012892688
       280          700.000000         0.435643662       220.988311380       -14.461491676       -14.036692438         0.012880372
       290          725.000000         0.439575570       222.982844956       -14.462732828       -14.036678909         0.012884202
       300          750.000000         0.440903278       223.656349292       -14.464334165       -14.036671289         0.013361355
       310          775.000000         0.442654297       224.544585862       -14.465856927       -14.036658285         0.012880915
       320          800.000000         0.438985357       222.683448071       -14.463609530       -14.036620429         0.012773473
       330          825.000000         0.434866144       220.593901071       -14.457918403       -14.036546736         0.012862868
       340          850.000000         0.431765071       219.020824771       -14.453257205       -14.036446475         0.012846093
       350          875.000000         0.431137215       218.702332798       -14.451187163       -14.036338955         0.012872323
       360          900.000000         0.428510844       217.370057858       -14.449549529       -14.036237696         0.012866619
       370          925.000000         0.427485077       216.849718157       -14.450386004       -14.036158194         0.012850538
       380          950.000000         0.433762273       220.033942388       -14.456694666       -14.036103904         0.012864778
       390          975.000000         0.444023582       225.239181331       -14.465247580       -14.036058760         0.012819284
       400         1000.000000         0.450621530       228.586112175       -14.472108209       -14.036021154         0.012830278
       410         1025.000000         0.452899970       229.741893492       -14.472357837       -14.035991976         0.012860234
       420         1050.000000         0.443832980       225.142494783       -14.464693721       -14.035971278         0.012881448
       430         1075.000000         0.435719841       221.026954827       -14.457124015       -14.035963535         0.012917330
       440         1100.000000         0.433204007       219.750751435       -14.454443984       -14.035955454         0.012913451
       450         1125.000000         0.433505301       219.903588298       -14.455276744       -14.035932490         0.012839804
       460         1150.000000         0.433966912       220.137749121       -14.457524277       -14.035899290         0.012824307
       470         1175.000000         0.434812793       220.566837958       -14.459838244       -14.035872115         0.012837239
       480         1200.000000         0.433910226       220.108994082       -14.459153613       -14.035854662         0.012893928
       490         1225.000000         0.430925954       218.595166906       -14.454676942       -14.035840873         0.012881698
       500         1250.000000         0.428757278       217.495065800       -14.451344799       -14.035828380         0.012857333
       510         1275.000000         0.432327491       219.306122637       -14.453809476       -14.035812686         0.012848196
       520         1300.000000         0.441071743       223.741806252       -14.462475078       -14.035800587         0.012809953
       530         1325.000000         0.448734092       227.628674483       -14.470828911       -14.035797248         0.012882584
       540         1350.000000         0.449637134       228.086759408       -14.472509140       -14.035812229         0.012826812
       550         1375.000000         0.443049283       224.744950115       -14.466373244       -14.035848603         0.013135964
       560         1400.000000         0.434730107       220.524894139       -14.457718460       -14.035907398         0.012869557
       570         1425.000000         0.430224951       218.239570240       -14.453573599       -14.035994091         0.012846858
       580         1450.000000         0.433533064       219.917671681       -14.456141630       -14.036111217         0.012867177
       590         1475.000000         0.441433209       223.925166293       -14.462534337       -14.036254478         0.012815936
       600         1500.000000         0.443450634       224.948542783       -14.467312712       -14.036410547         0.012843348
       610         1525.000000         0.442240277       224.334566917       -14.469084754       -14.036567092         0.012849814
       620         1550.000000         0.449515050       228.024829843       -14.473663782       -14.036733928         0.012846604
       630         1575.000000         0.450225317       228.385126223       -14.476534226       -14.036896785         0.012802461
       640         1600.000000         0.441730748       224.076098874       -14.468027360       -14.037029232         0.012888983
       650         1625.000000         0.427908638       217.064577400       -14.452059035       -14.037125760         0.012867476
       660         1650.000000         0.417724644       211.898557865       -14.440077289       -14.037184530         0.012931670
       670         1675.000000         0.415528631       210.784589720       -14.439395611       -14.037201605         0.012842323
       680         1700.000000         0.424379137       215.274172929       -14.448535730       -14.037176522         0.012959157
       690         1725.000000         0.439729276       223.060815037       -14.459236692       -14.037117332         0.012825155
       700         1750.000000         0.442700267       224.567905157       -14.460567249       -14.037022671         0.012836797
       710         1775.000000         0.435859350       221.097723454       -14.453499191       -14.036909632         0.012896606
       720         1800.000000         0.428921409       217.578324174       -14.446643367       -14.036789713         0.012875230
       730         1825.000000         0.430793269       218.527859818       -14.447309036       -14.036667508         0.013635047
       740         1850.000000         0.438154019       222.261736852       -14.455019515       -14.036543386         0.012842915
       750         1875.000000         0.447856259       227.183377631       -14.464720497       -14.036424482         0.013003740
       760         1900.000000         0.452067047       229.319377656       -14.470789730       -14.036318898         0.012861288
       770         1925.000000         0.451503009       229.033259100       -14.468976720       -14.036220186         0.012855344
       780         1950.000000         0.444197745       225.327528763       -14.460619187       -14.036113998         0.012848547
       790         1975.000000         0.437059778       221.706662636       -14.454162730       -14.035995383         0.012925085
       800         2000.000000         0.439097397       222.740282553       -14.454380873       -14.035858971         0.012926163
       810         2025.000000         0.445355357       225.914748536       -14.458818022       -14.035704386         0.012903542
       820         2050.000000         0.449786150       228.162350318       -14.465471381       -14.035550911         0.012911149
       830         2075.000000         0.454600424       230.604479951       -14.471678615       -14.035423400         0.012912472
       840         2100.000000         0.456931769       231.787097872       -14.473343923       -14.035335747         0.012936960
       850         2125.000000         0.456451779       231.543613927       -14.471030530       -14.035296117         0.012906623
       860         2150.000000         0.455357282       230.988410095       -14.468381157       -14.035302810         0.012882011
       870         2175.000000         0.454646778       230.627993972       -14.462851288       -14.035335701         0.012892598
       880         2200.000000         0.443379146       224.912278906       -14.449337558       -14.035356746         0.012968691
       890         2225.000000         0.432930873       219.612199279       -14.437680225       -14.035361745         0.012899375
       900         2250.000000         0.430718015       218.489685760       -14.436616744       -14.035354198         0.012957436
       910         2275.000000         0.434222982       220.267645244       -14.440617875       -14.035325640         0.012885591
       920         2300.000000         0.438537920       222.456477688       -14.445602410       -14.035293433         0.013699753
       930         2325.000000         0.444414251       225.437355223       -14.449629433       -14.035279694         0.012935509
       940         2350.000000         0.440841752       223.625139072       -14.447641064       -14.035287240         0.012864178
       950         2375.000000         0.433433392       219.867111303       -14.439810396       -14.035316472         0.012925972
       960         2400.000000         0.424598554       215.385475915       -14.431835576       -14.035366567         0.012871479
       970         2425.000000         0.420143629       213.125633194       -14.427917548       -14.035430445         0.012926323
       980         2450.000000         0.420578941       213.346452952       -14.429413852       -14.035504039         0.012892507
       990         2475.000000         0.425796862       215.993340174       -14.433472191       -14.035578985         0.012888549
      1000         2500.000000         0.431535275       218.904256083       -14.437742174       -14.035642087         0.012942387
      1010         2525.000000         0.437139142       221.746921750       -14.442673476       -14.035680898         0.012896280
      1020         2550.000000         0.439418292       222.903062481       -14.445161014       -14.035680310         0.012924750
      1030         2575.000000         0.437525239       221.942776628       -14.442535183       -14.035640291         0.013783023
      1040         2600.000000         0.436324822       221.333842553       -14.439888588       -14.035589689         0.012914199
      1050         2625.000000         0.436416595       221.380396299       -14.440315135       -14.035545302         0.012912410
      1060         2650.000000         0.438994327       222.687998456       -14.442762546       -14.035511295         0.012898192
      1070         2675.000000         0.440173368       223.286088920       -14.445032181       -14.035487826         0.012936358
      1080         2700.000000         0.442484400       224.458402453       -14.445421697       -14.035478776         0.012895856
      1090         2725.000000         0.441503614       223.960880839       -14.443424968       -14.035488732         0.012888052
      1100         2750.000000         0.439149067       222.766493312       -14.441320975       -14.035523795         0.013716279
      1110         2775.000000         0.440921143       223.665411639       -14.440167443       -14.035580176         0.012932528
      1120         2800.000000         0.438932137       222.656451351       -14.438489937       -14.035646794         0.012857733
      1130         2825.000000         0.436942959       221.647403948       -14.436033855       -14.035717268         0.012931119
      1140         2850.000000         0.434269563       220.291274562       -14.433228295       -14.035787355         0.012937044
      1150         2875.000000         0.431587237       218.930614987       -14.431212604       -14.035853714         0.012875852
      1160         2900.000000         0.432975150       219.634659705       -14.432126176       -14.035913479         0.012863670
      1170         2925.000000         0.440293287       223.346919757       -14.437927902       -14.035966919         0.012974336
      1180         2950.000000         0.447505737       227.005568854       -14.445611671       -14.036010798         0.014183107
      1190         2975.000000         0.448884696       227.705071301       -14.446662184       -14.036036866         0.012958657
      1200         3000.000000         0.440834510       223.621465482       -14.435777900       -14.036039724         0.012902570
      1210         3025.000000         0.424986680       215.582360218       -14.419317740       -14.036027784         0.012912291
      1220         3050.000000         0.414149249       210.084872683       -14.410406320       -14.036017771         0.012888354
      1230         3075.000000         0.418618747       212.352108248       -14.415693449       -14.036015391         0.012854363
      1240         3100.000000         0.433751907       220.028683633       -14.430599800       -14.036018487         0.012978148
      1250         3125.000000         0.449264324       227.897644549       -14.445783959       -14.036024467         0.012963473
      1260         3150.000000         0.458643244       232.655275187       -14.454798647       -14.036035565         0.012909591
      1270         3175.000000         0.455223150       230.920369250       -14.452370006       -14.036043668         0.012903578
      1280         3200.000000         0.444288490       225.373560705       -14.440097004       -14.036035383         0.012864486
      1290         3225.000000         0.435853638       221.094825775       -14.432789399       -14.036022144         0.012888120
      1300         3250.000000         0.442458959       224.445497217       -14.438434729       -14.036009858         0.012909271
      1310         3275.000000         0.454519892       230.563628842       -14.448483091       -14.035990898         0.012853722
      1320         3300.000000         0.458616700       232.641810595       -14.452520449       -14.035963191         0.012890518
      1330         3325.000000         0.454740442       230.675506588       -14.450214732       -14.035943979         0.012889385
      1340         3350.000000         0.448732771       227.628004273       -14.445599234       -14.035956035         0.012877891
      1350         3375.000000         0.444753444       225.609417074       -14.439721326       -14.035999269         0.012923477
      1360         3400.000000         0.442967711       224.703570922       -14.435204132       -14.036067539         0.012856731
      1370         3425.000000         0.444621352       225.542411248       -14.435534860       -14.036151094         0.012912629
      1380         3450.000000         0.448024401       227.268670890       -14.438237933       -14.036230277         0.012880216
      1390         3475.000000         0.447938788       227.225241896       -14.439138468       -14.036292322         0.012883716
      1400         3500.000000         0.448603463       227.562410599       -14.438446701       -14.036341546         0.012808267
      1410         3525.000000         0.447860823       227.185692567       -14.436250563       -14.036381000         0.012885453
      1420         3550.000000         0.444539352       225.500814865       -14.432316494       -14.036408002         0.012876074
      1430         3575.000000         0.443505967       224.976611475       -14.430607907       -14.036415325         0.012897707
      1440         3600.000000         0.451125044       228.841529317       -14.437230405       -14.036400116         0.012914452
      1450         3625.000000         0.462290860       234.505595997       -14.448431672       -14.036349737         0.013215525
      1460         3650.000000         0.470759232       238.801334359       -14.455296721       -14.036263175         0.012906177
      1470         3675.000000         0.468502292       237.656460022       -14.453533221       -14.036163718         0.012836564
      1480         3700.000000         0.459049292       232.861250737       -14.446259912       -14.036080880         0.012884305
      1490         3725.000000         0.455785982       231.205876534       -14.442917444       -14.036050922         0.012875073
      1500         3750.000000         0.459343316       233.010399745       -14.445688328       -14.036087728         0.012847777
      1510         3775.000000         0.459494090       233.086882658       -14.447966121       -14.036172009         0.012873269
      1520         3800.000000         0.460878546       233.789173680       -14.448412117       -14.036277355         0.012855184
      1530         3825.000000         0.462858063       234.793320247       -14.450641104       -14.036377911         0.012883953
      1540         3850.000000         0.463683740       235.212160048       -14.453586784       -14.036439068         0.012865950
      1550         3875.000000         0.466089395       236.432473076       -14.455307361       -14.036443665         0.012909133
      1560         3900.000000         0.466252240       236.515079398       -14.455541994       -14.036401272         0.012828551
      1570         3925.000000         0.465207091       235.984908047       -14.452618803       -14.036326742         0.012870730
      1580         3950.000000         0.460436150       233.564759834       -14.448405742       -14.036242605         0.012878696
      1590         3975.000000         0.460877506       233.788645970       -14.447183898       -14.036173780         0.012869523
      1600         4000.000000         0.459046836       232.860004760       -14.446531024       -14.036118522         0.012883165
      1610         4025.000000         0.458707911       232.688078811       -14.444140220       -14.036071835         0.012894306
      1620         4050.000000         0.459335556       233.006463489       -14.442587418       -14.036043201         0.012875888
      1630         4075.000000         0.462881083       234.804997783       -14.443084237       -14.036040783         0.012819178
      1640         4100.000000         0.462267600       234.493797114       -14.443608952       -14.036060776         0.012862754
      1650         4125.000000         0.462966302       234.848226313       -14.442511129       -14.036093767         0.012830695
      1660         4150.000000         0.459465010       233.072131586       -14.439375413       -14.036125466         0.012848819
      1670         4175.000000         0.458274903       232.468427404       -14.437874112       -14.036152779         0.012847539
      1680         4200.000000         0.456879230       231.760446425       -14.439343341       -14.036172064         0.012879157
      1690         4225.000000         0.460986247       233.843806824       -14.442889647       -14.036184367         0.012922908
      1700         4250.000000         0.464798808       235.777799072       -14.446271398       -14.036194103         0.012856885
      1710         4275.000000         0.466095095       236.435364628       -14.446773921       -14.036201212         0.012859984
      1720         4300.000000         0.464828058       235.792636878       -14.442940693       -14.036202612         0.012866815
      1730         4325.000000         0.458853930       232.762149479       -14.436677589       -14.036200844         0.012854647
      1740         4350.000000         0.454274711       230.439255986       -14.432201671       -14.036211486         0.012888186
      1750         4375.000000         0.452339227       229.457445903       -14.430971030       -14.036241834         0.012899581
      1760         4400.000000         0.456709372       231.674282783       -14.434778618       -14.036303776         0.012868383
      1770         4425.000000         0.460649301       233.672884691       -14.440561487       -14.036389004         0.012898297
      1780         4450.000000         0.464288586       235.518979298       -14.444711778       -14.036486268         0.012827791
      1790         4475.000000         0.468203476       237.504879879       -14.446602893       -14.036588606         0.012867113
      1800         4500.000000         0.467074878       236.932377541       -14.446037446       -14.036683192         0.012859482
      1810         4525.000000         0.464317784       235.533790595       -14.443128249       -14.036759702         0.012846120
      1820         4550.000000         0.458841316       232.755751074       -14.438139131       -14.036811833         0.012872730
      1830         4575.000000         0.449295949       227.913686753       -14.430931867       -14.036849132         0.012830715
      1840         4600.000000         0.440036051       223.216432434       -14.420293001       -14.036874514         0.012868010
      1850         4625.000000         0.432915533       219.604417644       -14.412974727       -14.036904987         0.012888571
      1860         4650.000000         0.435928677       221.132890941       -14.414931618       -14.036946253         0.012856837
      1870         4675.000000         0.444549875       225.506152988       -14.422121320       -14.036975988         0.012837184
      1880         4700.000000         0.453910596       230.254551903       -14.430053844       -14.036985052         0.012850927
      1890         4725.000000         0.455780876       231.203286032       -14.434406460       -14.036973345         0.012834270
      1900         4750.000000         0.456315739       231.474605206       -14.432530186       -14.036941751         0.012845813
      1910         4775.000000         0.452588417       229.583852369       -14.427341765       -14.036897794         0.012843076
      1920         4800.000000         0.454276807       230.440319253       -14.426318110       -14.036848488         0.012831251
      1930         4825.000000         0.460545291       233.620123818       -14.433600584       -14.036800182         0.012828240
      1940         4850.000000         0.472782021       239.827431555       -14.443623799       -14.036745305         0.012970672
      1950         4875.000000         0.481495910       244.247713003       -14.450631293       -14.036683747         0.012869949
      1960         4900.000000         0.486293284       246.681269934       -14.453266531       -14.036625727         0.012826867
      1970         4925.000000         0.483643741       245.337240321       -14.450722984       -14.036582869         0.013948600
      1980         4950.000000         0.473427324       240.154773804       -14.442039212       -14.036553257         0.012863194
      1990         4975.000000         0.463291939       235.013411764       -14.431154021       -14.036532914         0.012838916
      2000         5000.000000         0.455949933       231.289043662       -14.424500571       -14.036515903         0.012879108
      2010         5025.000000         0.452644960       229.612534663       -14.423847927       -14.036496896         0.012852439
      2020         5050.000000         0.454261939       230.432777030       -14.427231877       -14.036473635         0.013230660
      2030         5075.000000         0.460170932       233.430223560       -14.432850986       -14.036451743         0.012874244
      2040         5100.000000         0.465796988       236.284144606       -14.438689164       -14.036437491         0.012919532
      2050         5125.000000         0.468567701       237.689639644       -14.440136022       -14.036432494         0.012917820
      2060         5150.000000         0.464672191       235.713570399       -14.434763192       -14.036435603         0.013739479
      2070         5175.000000         0.458674850       232.671308100       -14.429291118       -14.036457391         0.012832033
      2080         5200.000000         0.462608004       234.666473116       -14.430850389       -14.036498108         0.012891276
      2090         5225.000000         0.471358087       239.105114912       -14.439358574       -14.036549609         0.012855421
      2100         5250.000000         0.478125274       242.537895808       -14.446621072       -14.036592377         0.012839379
      2110         5275.000000         0.480172461       243.576369341       -14.448488529       -14.036624654         0.012866621
      2120         5300.000000         0.477228047       242.082760841       -14.446455675       -14.036661263         0.012863297
      2130         5325.000000         0.473079589       239.978378587       -14.439708626       -14.036701595         0.012858866
      2140         5350.000000         0.466298484       236.538537632       -14.430892384       -14.036752862         0.012878201
      2150         5375.000000         0.459051642       232.862442625       -14.423565041       -14.036818589         0.012850130
      2160         5400.000000         0.453958404       230.278803584       -14.419257520       -14.036897528         0.012840924
      2170         5425.000000         0.451953201       229.261626969       -14.418063736       -14.036984594         0.012852185
      2180         5450.000000         0.451977252       229.273827269       -14.416893767       -14.037058545         0.012903142
      2190         5475.000000         0.455733043       231.179021876       -14.415601333       -14.037097146         0.012859999
      2200         5500.000000         0.458791126       232.730291417       -14.418499525       -14.037098605         0.012872339
      2210         5525.000000         0.464722449       235.739064497       -14.425502641       -14.037066412         0.012931574
      2220         5550.000000         0.471202539       239.026210013       -14.432755524       -14.037018619         0.013731801
      2230         5575.000000         0.475970416       241.444803828       -14.435398871       -14.036965225         0.012841253
      2240         5600.000000         0.473228490       240.053911282       -14.434995819       -14.036922802         0.012843143
      2250         5625.000000         0.473009964       239.943059984       -14.436020388       -14.036905572         0.012944619
      2260         5650.000000         0.469883991       238.357352184       -14.433352075       -14.036902711         0.012921553
      2270         5675.000000         0.460672831       233.684821113       -14.422661917       -14.036904905         0.012852915