
Host: cpn-f11-03.cbls.ccr.buffalo.edu

Timers On : Mon Jun 21 20:38:31 2021
Timers Off: Mon Jun 21 20:40:18 2021

Wall Time:      107.33 seconds

                                                       Time (seconds)
Module                                       User      System        Wall        Calls

--------------------------------------------------------------------------------------

**************************************************************************************
