
     Program PWSCF v.6.2 (svn rev. 14038) starts on 22Jun2021 at 10:43:51 

     This program is part of the open-source Quantum ESPRESSO suite
     for quantum simulation of materials; please cite
         "P. Giannozzi et al., J. Phys.:Condens. Matter 21 395502 (2009);
         "P. Giannozzi et al., J. Phys.:Condens. Matter 29 465901 (2017);
          URL http://www.quantum-espresso.org", 
     in publications or presentations arising from this work. More details at
     http://www.quantum-espresso.org/quote

     Parallel version (MPI), running on     1 processors

     MPI processes distributed on     1 nodes
     Waiting for input...
     Reading input from standard input

     Current dimensions of program PWSCF are:
     Max number of different atomic species (ntypx) = 10
     Max number of k-points (npk) =  40000
     Max angular momentum in pseudopotentials (lmaxx) =  3
               file Ir.pbe-n-rrkjus_psl.0.2.3.UPF: wavefunction(s)  5D renormalized

     gamma-point specific algorithms are used

     Subspace diagonalization in iterative solution of the eigenvalue problem:
     a serial algorithm will be used

 
     G-vector sticks info
     --------------------
     sticks:   dense  smooth     PW     G-vecs:    dense   smooth      PW
     Sum        4257    1701    421               208801    52635    6619
 


     bravais-lattice index     =            0
     lattice parameter (alat)  =      13.3514  a.u.
     unit-cell volume          =    2380.0325 (a.u.)^3
     number of atoms/cell      =           25
     number of atomic types    =            4
     number of electrons       =        72.00
     number of Kohn-Sham states=           43
     kinetic-energy cutoff     =      30.0000  Ry
     charge density cutoff     =     300.0000  Ry
     convergence threshold     =      1.0E-04
     mixing beta               =       0.3000
     number of iterations used =            8  plain     mixing
     Exchange-correlation      = PBE ( 1  4  3  4 0 0)
     nstep                     =          100


     celldm(1)=  13.351425  celldm(2)=   0.000000  celldm(3)=   0.000000
     celldm(4)=   0.000000  celldm(5)=   0.000000  celldm(6)=   0.000000

     crystal axes: (cart. coord. in units of alat)
               a(1) = (   1.000000   0.000000   0.000000 )  
               a(2) = (   0.000000   1.000000   0.000000 )  
               a(3) = (   0.000000   0.000000   1.000000 )  

     reciprocal axes: (cart. coord. in units 2 pi/alat)
               b(1) = (  1.000000  0.000000  0.000000 )  
               b(2) = (  0.000000  1.000000  0.000000 )  
               b(3) = (  0.000000  0.000000  1.000000 )  


     PseudoPot. # 1 for C  read from file:
     /util/academic/espresso/6.2.1/pseudopotentials/upf_files/C.pbe-n-rrkjus_psl.0.1.UPF
     MD5 check sum: ab446d787031eba755f1d5ee46644bb0
     Pseudo is Ultrasoft + core correction, Zval =  4.0
     Generated using "atomic" code by A. Dal Corso v.5.0.2 svn rev. 9415
     Using radial grid of 1073 points,  4 beta functions with: 
                l(1) =   0
                l(2) =   0
                l(3) =   1
                l(4) =   1
     Q(r) pseudized with 0 coefficients 


     PseudoPot. # 2 for H  read from file:
     /util/academic/espresso/6.2.1/pseudopotentials/upf_files/H.pbe-rrkjus_psl.0.1.UPF
     MD5 check sum: bd57da0722753ddfd9833a65b40bb853
     Pseudo is Ultrasoft, Zval =  1.0
     Generated using "atomic" code by A. Dal Corso v.5.0.2 svn rev. 9415
     Using radial grid of  929 points,  2 beta functions with: 
                l(1) =   0
                l(2) =   0
     Q(r) pseudized with 0 coefficients 


     PseudoPot. # 3 for Ir read from file:
     /util/academic/espresso/6.2.1/pseudopotentials/upf_files/Ir.pbe-n-rrkjus_psl.0.2.3.UPF
     MD5 check sum: 0d5bc36db6a0bde07ee800c0d8fcbb77
     Pseudo is Ultrasoft + core correction, Zval =  9.0
     Generated using "atomic" code by A. Dal Corso v.5.0.2 svn rev. 9415
     Using radial grid of 1277 points,  6 beta functions with: 
                l(1) =   0
                l(2) =   0
                l(3) =   1
                l(4) =   1
                l(5) =   2
                l(6) =   2
     Q(r) pseudized with 0 coefficients 


     PseudoPot. # 4 for N  read from file:
     /util/academic/espresso/6.2.1/pseudopotentials/upf_files/N.pbe-n-rrkjus_psl.0.1.UPF
     MD5 check sum: ed8b6a90f28a53b7d71920e7015d2dd6
     Pseudo is Ultrasoft + core correction, Zval =  5.0
     Generated using "atomic" code by A. Dal Corso v.5.0.2 svn rev. 9415
     Using radial grid of 1085 points,  4 beta functions with: 
                l(1) =   0
                l(2) =   0
                l(3) =   1
                l(4) =   1
     Q(r) pseudized with 0 coefficients 


     atomic species   valence    mass     pseudopotential
        C              4.00    12.01000     C ( 1.00)
        H              1.00     1.00700     H ( 1.00)
        Ir             9.00   192.21700     Ir( 1.00)
        N              5.00    14.00600     N ( 1.00)

     No symmetry found



   Cartesian axes

     site n.     atom                  positions (alat units)
         1           Ir  tau(   1) = (   0.0000000   0.0000000  -0.0009950  )
         2           N   tau(   2) = (   0.1348243  -0.2162295  -0.1597207  )
         3           N   tau(   3) = (  -0.2546725  -0.0086465  -0.1597207  )
         4           N   tau(   4) = (   0.1198482   0.2248761  -0.1597207  )
         5           C   tau(   5) = (  -0.0681418   0.2260635   0.1519064  )
         6           C   tau(   6) = (   0.2298483  -0.0540192   0.1519064  )
         7           C   tau(   7) = (   0.2914581  -0.2765542  -0.0857929  )
         8           C   tau(   8) = (   0.3491176  -0.1916714   0.0872069  )
         9           C   tau(   9) = (  -0.1617065  -0.1720444   0.1519064  )
        10           C   tau(  10) = (   0.0937742   0.3906871  -0.0857929  )
        11           C   tau(  11) = (  -0.0085673   0.3981801   0.0872069  )
        12           C   tau(  12) = (  -0.3852323  -0.1141329  -0.0857929  )
        13           C   tau(  13) = (  -0.3405517  -0.2065087   0.0872069  )
        14           H   tau(  14) = (   0.2658625   0.0152294   0.2851214  )
        15           H   tau(  15) = (   0.4774595  -0.2367482   0.1583521  )
        16           H   tau(  16) = (   0.3734012  -0.3877941  -0.1545206  )
        17           H   tau(  17) = (   0.1491380   0.5172725  -0.1545206  )
        18           H   tau(  18) = (  -0.0337001   0.5318664   0.1583521  )
        19           H   tau(  19) = (  -0.1461204   0.2226284   0.2851214  )
        20           H   tau(  20) = (  -0.4437594  -0.2951182   0.1583521  )
        21           H   tau(  21) = (  -0.1197421  -0.2378579   0.2851214  )
        22           H   tau(  22) = (  -0.5225405  -0.1294784  -0.1545206  )
        23           H   tau(  23) = (   0.0944550  -0.2782045  -0.2822228  )
        24           H   tau(  24) = (   0.1937039   0.2209031  -0.2822228  )
        25           H   tau(  25) = (  -0.2881588   0.0573014  -0.2822228  )

     number of k points=     1  gaussian smearing, width (Ry)=  0.0100
                       cart. coord. in units 2pi/alat
        k(    1) = (   0.0000000   0.0000000   0.0000000), wk =   2.0000000

     Dense  grid:   104401 G-vectors     FFT dimensions: (  75,  75,  75)

     Smooth grid:    26318 G-vectors     FFT dimensions: (  48,  48,  48)

     Estimated max dynamical RAM per process >     515.75 MB

     Check: negative/imaginary core charge=   -0.000002    0.000000

     Initial potential from superposition of free atoms

     starting charge   71.99934, renormalised to   72.00000
     Starting wfc are   69 randomized atomic wfcs

     total cpu time spent up to now is        3.5 secs

     Self-consistent Calculation

     iteration #  1     ecut=    30.00 Ry     beta= 0.30
     Davidson diagonalization with overlap
     ethr =  1.00E-02,  avg # of iterations =  3.0

     total cpu time spent up to now is        4.9 secs

     total energy              =    -243.31224334 Ry
     Harris-Foulkes estimate   =    -244.62835770 Ry
     estimated scf accuracy    <       3.45361945 Ry

     iteration #  2     ecut=    30.00 Ry     beta= 0.30
     Davidson diagonalization with overlap
     ethr =  4.80E-03,  avg # of iterations =  1.0

     total cpu time spent up to now is        6.2 secs

     total energy              =    -243.24201509 Ry
     Harris-Foulkes estimate   =    -243.63467538 Ry
     estimated scf accuracy    <       0.99910576 Ry

     iteration #  3     ecut=    30.00 Ry     beta= 0.30
     Davidson diagonalization with overlap
     ethr =  1.39E-03,  avg # of iterations =  6.0

     total cpu time spent up to now is        7.6 secs

     total energy              =    -243.46314528 Ry
     Harris-Foulkes estimate   =    -243.52064632 Ry
     estimated scf accuracy    <       0.21567228 Ry

     iteration #  4     ecut=    30.00 Ry     beta= 0.30
     Davidson diagonalization with overlap
     ethr =  3.00E-04,  avg # of iterations =  3.0

     negative rho (up, down):  2.583E-08 0.000E+00

     total cpu time spent up to now is        8.8 secs

     total energy              =    -243.45984426 Ry
     Harris-Foulkes estimate   =    -243.48811075 Ry
     estimated scf accuracy    <       0.06933034 Ry

     iteration #  5     ecut=    30.00 Ry     beta= 0.30
     Davidson diagonalization with overlap
     ethr =  9.63E-05,  avg # of iterations =  4.0

     negative rho (up, down):  6.111E-08 0.000E+00

     total cpu time spent up to now is       10.1 secs

     total energy              =    -243.46942648 Ry
     Harris-Foulkes estimate   =    -243.47511845 Ry
     estimated scf accuracy    <       0.01422499 Ry

     iteration #  6     ecut=    30.00 Ry     beta= 0.30
     Davidson diagonalization with overlap
     ethr =  1.98E-05,  avg # of iterations =  7.0

     total cpu time spent up to now is       11.5 secs

     total energy              =    -243.47138543 Ry
     Harris-Foulkes estimate   =    -243.47164698 Ry
     estimated scf accuracy    <       0.00120928 Ry

     iteration #  7     ecut=    30.00 Ry     beta= 0.30
     Davidson diagonalization with overlap
     c_bands:  1 eigenvalues not converged
     ethr =  1.68E-06,  avg # of iterations = 20.0

     total cpu time spent up to now is       13.1 secs

     total energy              =    -243.47154537 Ry
     Harris-Foulkes estimate   =    -243.47196390 Ry
     estimated scf accuracy    <       0.00088256 Ry

     iteration #  8     ecut=    30.00 Ry     beta= 0.30
     Davidson diagonalization with overlap
     ethr =  1.23E-06,  avg # of iterations =  7.0

     total cpu time spent up to now is       14.5 secs

     total energy              =    -243.47175633 Ry
     Harris-Foulkes estimate   =    -243.47186446 Ry
     estimated scf accuracy    <       0.00027765 Ry

     iteration #  9     ecut=    30.00 Ry     beta= 0.30
     Davidson diagonalization with overlap
     ethr =  3.86E-07,  avg # of iterations =  3.0

     total cpu time spent up to now is       15.7 secs

     End of self-consistent calculation

          k = 0.0000 0.0000 0.0000 (  3310 PWs)   bands (ev):

   -18.8919 -18.3243 -18.1365 -16.0528 -13.9317 -13.7245 -11.9763 -11.5465
   -10.9234 -10.5544  -9.0464  -8.5641  -8.3794  -7.6099  -7.5945  -7.2549
    -5.9890  -5.7148  -5.5316  -5.1943  -4.9118  -4.4417  -4.3847  -4.1487
    -4.0646  -3.7895  -2.9403  -2.4809  -2.0696  -1.9454  -1.6751  -1.4232
    -0.6294  -0.3213  -0.1108   0.4035   1.9949   2.6160   3.0116   3.2800
     5.0397   5.1491   5.2447

     the Fermi energy is     1.2748 ev

!    total energy              =    -243.47183518 Ry
     Harris-Foulkes estimate   =    -243.47181499 Ry
     estimated scf accuracy    <       0.00001205 Ry

     convergence has been achieved in   9 iterations

     Forces acting on atoms (cartesian axes, Ry/au):

     atom    1 type  3   force =     0.00989778    0.03887238    0.00922704
     atom    2 type  4   force =    -0.01379948    0.05249872   -0.00579970
     atom    3 type  4   force =     0.00936693   -0.00038151    0.01769244
     atom    4 type  4   force =    -0.00204683   -0.03113836   -0.00449655
     atom    5 type  1   force =    -0.00560122   -0.01585585    0.00044192
     atom    6 type  1   force =    -0.00799097   -0.01662095   -0.00981421
     atom    7 type  1   force =     0.00399294    0.00654939    0.02428001
     atom    8 type  1   force =    -0.27015854    0.03154204    0.04287694
     atom    9 type  1   force =     0.00229344    0.01184022   -0.00111529
     atom   10 type  1   force =    -0.01691755    0.00047818    0.00471975
     atom   11 type  1   force =     0.00869407    0.00784914   -0.00524543
     atom   12 type  1   force =     0.02686345    0.00516160   -0.04137025
     atom   13 type  1   force =     0.23718756   -0.02244308   -0.01631410
     atom   14 type  2   force =     0.00114063    0.00817375    0.01269535
     atom   15 type  2   force =    -0.37215403    0.20775535    0.03302237
     atom   16 type  2   force =     0.01199258   -0.00320385   -0.00238120
     atom   17 type  2   force =    -0.01927107   -0.04870068    0.00349889
     atom   18 type  2   force =     0.00304558    0.00140463    0.00223359
     atom   19 type  2   force =    -0.00604775   -0.00223347    0.01267706
     atom   20 type  2   force =     0.37083088   -0.24663893    0.00432454
     atom   21 type  2   force =     0.00384925   -0.00335049    0.01456860
     atom   22 type  2   force =     0.03144266    0.01477636   -0.02852073
     atom   23 type  2   force =    -0.01183859   -0.00310348   -0.02514023
     atom   24 type  2   force =     0.01038775   -0.00256772   -0.01915223
     atom   25 type  2   force =    -0.00515946    0.00933661   -0.02290860

     Total force =     0.729386     Total SCF correction =     0.003176

     Molecular Dynamics Calculation

     Starting temperature  =   300.00 K

     temperature is controlled by Andersen thermostat
     Collision frequency = 0.1000/timestep
     mass C                =    12.01
     mass H                =     1.01
     mass Ir               =   192.22
     mass N                =    14.01
     Time step             =    20.67 a.u.,  1.0000 femto-seconds

     Entering Dynamics:    iteration =     1
                           time      =   0.0010 pico-seconds


     Andersen thermostat:    4 collisions

ATOMIC_POSITIONS (angstrom)
Ir      -0.000177629   0.000377468  -0.006478843
N        0.958570512  -1.524577284  -1.130506953
N       -1.800168848  -0.065929222  -1.124827202
N        0.848972895   1.589976614  -1.133812243
C       -0.481820327   1.592797185   1.073139967
C        1.619303942  -0.384650460   1.073134797
C        2.057736887  -1.952390652  -0.598990694
C        2.463593267  -1.349831302   0.613823240
C       -1.142738557  -1.217787629   1.075749445
C        0.662820155   2.757848102  -0.611257100
C       -0.051185561   2.818093558   0.612250960
C       -2.722197340  -0.806024352  -0.607499246
C       -2.409429767  -1.465883532   0.612471166
H        1.865818622   0.112127101   2.003597499
H        3.363482279  -1.656830767   1.117247318
H        2.665750330  -2.741091471  -1.068046883
H        1.046797423   3.673748947  -1.096555243
H       -0.246001019   3.766487601   1.120880729
H       -1.057235937   1.569379694   2.013716616
H       -3.062902305  -2.118353163   1.112695125
H       -0.837870288  -1.661609977   2.021407476
H       -3.683787935  -0.921713511  -1.104808393
H        0.636700589  -1.989347122  -1.975319557
H        1.343242786   1.579855044  -2.006764887
H       -2.056068110   0.416039881  -1.966016265


     kinetic energy (Ekin) =     0.06382307 Ry
     temperature           =   279.91260923 K 
     Ekin + Etot (const)   =  -243.40801211 Ry

     Linear momentum :    0.0000000000    0.0000000000    0.0000000000

     Writing output data file x0.save
     NEW-OLD atomic charge density approx. for the potential

     Check: negative/imaginary core charge=   -0.000002    0.000000

     total cpu time spent up to now is       17.5 secs

     Self-consistent Calculation

     iteration #  1     ecut=    30.00 Ry     beta= 0.30
     Davidson diagonalization with overlap
     ethr =  1.00E-06,  avg # of iterations =  5.0

     total cpu time spent up to now is       19.1 secs

     total energy              =    -243.53444966 Ry
     Harris-Foulkes estimate   =    -243.53532955 Ry
     estimated scf accuracy    <       0.00401341 Ry

     iteration #  2     ecut=    30.00 Ry     beta= 0.30
     Davidson diagonalization with overlap
     ethr =  5.57E-06,  avg # of iterations =  1.0

     total cpu time spent up to now is       20.2 secs

     total energy              =    -243.53439875 Ry
     Harris-Foulkes estimate   =    -243.53464744 Ry
     estimated scf accuracy    <       0.00138451 Ry

     iteration #  3     ecut=    30.00 Ry     beta= 0.30
     Davidson diagonalization with overlap
     ethr =  1.92E-06,  avg # of iterations =  3.0

     total cpu time spent up to now is       21.4 secs

     total energy              =    -243.53447958 Ry
     Harris-Foulkes estimate   =    -243.53451366 Ry
     estimated scf accuracy    <       0.00031474 Ry

     iteration #  4     ecut=    30.00 Ry     beta= 0.30
     Davidson diagonalization with overlap
     ethr =  4.37E-07,  avg # of iterations =  6.0

     total cpu time spent up to now is       22.7 secs

     total energy              =    -243.53454195 Ry
     Harris-Foulkes estimate   =    -243.53457395 Ry
     estimated scf accuracy    <       0.00013586 Ry

     iteration #  5     ecut=    30.00 Ry     beta= 0.30
     Davidson diagonalization with overlap
     ethr =  1.89E-07,  avg # of iterations =  1.0

     total cpu time spent up to now is       23.9 secs

     End of self-consistent calculation

          k = 0.0000 0.0000 0.0000 (  3310 PWs)   bands (ev):

   -18.8955 -18.3888 -18.1621 -15.8779 -13.9030 -13.7488 -11.9083 -11.3609
   -10.8827 -10.5629  -9.0306  -8.5620  -8.3601  -7.6817  -7.5473  -7.2114
    -5.9696  -5.7267  -5.5975  -5.1924  -4.9024  -4.5424  -4.3805  -4.1502
    -4.1171  -3.7583  -2.9694  -2.4695  -2.0763  -1.9446  -1.6598  -1.4169
    -0.8001  -0.3349  -0.1104   0.3873   1.9905   2.6138   3.0214   3.2900
     5.0841   5.1431   5.2593

     the Fermi energy is     1.2863 ev

!    total energy              =    -243.53454418 Ry
     Harris-Foulkes estimate   =    -243.53455122 Ry
     estimated scf accuracy    <       0.00003798 Ry

     convergence has been achieved in   5 iterations

     Forces acting on atoms (cartesian axes, Ry/au):

     atom    1 type  3   force =     0.00498853    0.03798576    0.00890045
     atom    2 type  4   force =    -0.02394953    0.04732227   -0.01562512
     atom    3 type  4   force =     0.01847746    0.00192895    0.02316737
     atom    4 type  4   force =    -0.00782103   -0.03448841    0.00266224
     atom    5 type  1   force =    -0.00761297    0.00255434    0.00470195
     atom    6 type  1   force =    -0.01438058   -0.01113567   -0.01486315
     atom    7 type  1   force =     0.01753603   -0.00742773    0.01302250
     atom    8 type  1   force =    -0.24275700    0.02951222    0.05316196
     atom    9 type  1   force =     0.00039639    0.01878199   -0.01118604
     atom   10 type  1   force =    -0.01185475    0.02492002    0.00267668
     atom   11 type  1   force =    -0.00511366   -0.00402269    0.01328704
     atom   12 type  1   force =     0.02315226   -0.00617993   -0.03687733
     atom   13 type  1   force =     0.25826871   -0.00042744   -0.02654689
     atom   14 type  2   force =     0.00454556    0.01180993    0.02143759
     atom   15 type  2   force =    -0.26724213    0.12596434    0.03606267
     atom   16 type  2   force =    -0.00107400    0.00312987    0.00031958
     atom   17 type  2   force =    -0.02376011   -0.06667010    0.00905540
     atom   18 type  2   force =     0.00708329   -0.00890130   -0.00497599
     atom   19 type  2   force =     0.00344495   -0.00049953   -0.00022464
     atom   20 type  2   force =     0.22982648   -0.18747883    0.01723060
     atom   21 type  2   force =     0.00225471   -0.00663401    0.01667420
     atom   22 type  2   force =     0.02887328    0.01605457   -0.02669065
     atom   23 type  2   force =    -0.00527710    0.00263153   -0.01807225
     atom   24 type  2   force =     0.01770596   -0.00599290   -0.03095754
     atom   25 type  2   force =    -0.00571076    0.01726277   -0.03634063

     Total force =     0.574057     Total SCF correction =     0.007353

     Entering Dynamics:    iteration =     2
                           time      =   0.0020 pico-seconds


     Andersen thermostat:    3 collisions

ATOMIC_POSITIONS (angstrom)
Ir      -0.000911366   0.001179719  -0.007221586
N        0.959078499  -1.530595591  -1.130630762
N       -1.800373895  -0.069791060  -1.119696311
N        0.860899268   1.586338476  -1.133707361
C       -0.482051368   1.589390350   1.074194813
C        1.614677383  -0.386927712   1.073780349
C        2.056912521  -1.950061508  -0.590484645
C        2.455868843  -1.343899800   0.613682316
C       -1.142662393  -1.218704090   1.079085597
C        0.663161981   2.756844156  -0.615231154
C       -0.041640212   2.823797244   0.609714128
C       -2.721839928  -0.804853132  -0.608532447
C       -2.407128375  -1.471792673   0.609331757
H        1.854673559   0.120506751   1.999093823
H        3.288057045  -1.608997495   1.125656292
H        2.693362618  -2.740598690  -1.043207278
H        1.034348169   3.677347195  -1.098071965
H       -0.251850565   3.773945622   1.122813402
H       -1.080936689   1.566649550   2.013995650
H       -2.933601230  -2.196857779   1.111912699
H       -0.828868603  -1.643380996   2.033540335
H       -3.668266517  -0.923728822  -1.123384165
H        0.605057720  -2.011512756  -1.960033383
H        1.322583900   1.598436980  -2.026098284
H       -2.077316509   0.432425597  -1.945927140


     kinetic energy (Ekin) =     0.12334131 Ry
     temperature           =   540.94527863 K 
     Ekin + Etot (const)   =  -243.41120287 Ry
     Message from routine dynamics:
     Total linear momentum <> 0

     Linear momentum :   -0.3390020910   -1.0431261331   -1.1919162144

     Writing output data file x0.save

     first order wave-functions extrapolation
     first order charge density extrapolation

     Check: negative/imaginary core charge=   -0.000002    0.000000

     total cpu time spent up to now is       26.1 secs

     Self-consistent Calculation

     iteration #  1     ecut=    30.00 Ry     beta= 0.30
     Davidson diagonalization with overlap
     ethr =  1.00E-06,  avg # of iterations =  5.0

     total cpu time spent up to now is       27.6 secs

     total energy              =    -243.62298539 Ry
     Harris-Foulkes estimate   =    -243.62384182 Ry
     estimated scf accuracy    <       0.00383754 Ry

     iteration #  2     ecut=    30.00 Ry     beta= 0.30
     Davidson diagonalization with overlap
     ethr =  5.33E-06,  avg # of iterations =  1.0

     total cpu time spent up to now is       28.8 secs

     total energy              =    -243.62283021 Ry
     Harris-Foulkes estimate   =    -243.62313297 Ry
     estimated scf accuracy    <       0.00135075 Ry

     iteration #  3     ecut=    30.00 Ry     beta= 0.30
     Davidson diagonalization with overlap
     ethr =  1.88E-06,  avg # of iterations =  6.0

     total cpu time spent up to now is       30.1 secs

     total energy              =    -243.62303258 Ry
     Harris-Foulkes estimate   =    -243.62308479 Ry
     estimated scf accuracy    <       0.00030244 Ry

     iteration #  4     ecut=    30.00 Ry     beta= 0.30
     Davidson diagonalization with overlap
     ethr =  4.20E-07,  avg # of iterations =  3.0

     total cpu time spent up to now is       31.3 secs

     total energy              =    -243.62304326 Ry
     Harris-Foulkes estimate   =    -243.62306040 Ry
     estimated scf accuracy    <       0.00010692 Ry

     iteration #  5     ecut=    30.00 Ry     beta= 0.30
     Davidson diagonalization with overlap
     ethr =  1.48E-07,  avg # of iterations =  3.0

     total cpu time spent up to now is       32.6 secs

     End of self-consistent calculation

          k = 0.0000 0.0000 0.0000 (  3310 PWs)   bands (ev):

   -18.8862 -18.4281 -18.1206 -15.5010 -13.8937 -13.7713 -11.8625 -10.8796
   -10.8392 -10.4746  -8.9795  -8.5417  -8.3045  -7.7879  -7.5192  -7.1020
    -5.9111  -5.8293  -5.6817  -5.1885  -4.8789  -4.6925  -4.3414  -4.2495
    -4.1353  -3.7568  -3.0551  -2.4803  -2.0655  -1.9378  -1.6383  -1.4183
    -1.1156  -0.3464  -0.1099   0.3437   1.9654   2.6254   3.0197   3.2876
     5.1142   5.1773   5.2561

     the Fermi energy is     1.2852 ev

!    total energy              =    -243.62305231 Ry
     Harris-Foulkes estimate   =    -243.62308581 Ry
     estimated scf accuracy    <       0.00005707 Ry

     convergence has been achieved in   5 iterations

     Forces acting on atoms (cartesian axes, Ry/au):

     atom    1 type  3   force =     0.00492097    0.03398307    0.01429669
     atom    2 type  4   force =    -0.02861786    0.04584644   -0.01881044
     atom    3 type  4   force =     0.02625578    0.01572292    0.01076224
     atom    4 type  4   force =    -0.00905982   -0.02682382   -0.00067620
     atom    5 type  1   force =    -0.01031841    0.01640665    0.00744505
     atom    6 type  1   force =    -0.02677125    0.00238077   -0.01311932
     atom    7 type  1   force =     0.02671617   -0.02268673    0.00071342
     atom    8 type  1   force =    -0.25754788    0.04453280    0.02349856
     atom    9 type  1   force =     0.00750996    0.02980192   -0.01797512
     atom   10 type  1   force =    -0.01016983    0.02373208    0.00450900
     atom   11 type  1   force =    -0.01621755   -0.01526451    0.02624567
     atom   12 type  1   force =     0.02488488   -0.02066509   -0.02720861
     atom   13 type  1   force =     0.23894552    0.01410635   -0.02960580
     atom   14 type  2   force =     0.00659139    0.01055943    0.02148608
     atom   15 type  2   force =    -0.06856260    0.01489960    0.07131584
     atom   16 type  2   force =    -0.01314854    0.00847949    0.00314513
     atom   17 type  2   force =    -0.02138237   -0.06676525    0.00574705
     atom   18 type  2   force =     0.01031156   -0.01444708   -0.00997703
     atom   19 type  2   force =     0.01150426    0.00055746   -0.01036511
     atom   20 type  2   force =     0.06556376   -0.11702462    0.02382952
     atom   21 type  2   force =    -0.00116616   -0.00807619    0.01214200
     atom   22 type  2   force =     0.02116632    0.01549160   -0.02496677
     atom   23 type  2   force =     0.00307237    0.00740531   -0.01090826
     atom   24 type  2   force =     0.01720327   -0.00843648   -0.02925044
     atom   25 type  2   force =    -0.00168393    0.01628388   -0.03227316

     Total force =     0.424635     Total SCF correction =     0.015552

     Entering Dynamics:    iteration =     3
                           time      =   0.0030 pico-seconds


     Andersen thermostat:    1 collisions

ATOMIC_POSITIONS (angstrom)
Ir      -0.001577644   0.001836319  -0.007700813
N        0.959140722  -1.535991385  -1.130842671
N       -1.801599073  -0.068768606  -1.120330878
N        0.872726284   1.582035734  -1.133369390
C       -0.482434432   1.586132893   1.075648504
C        1.609558962  -0.389345296   1.074399982
C        2.056701094  -1.948390473  -0.581718795
C        2.442885790  -1.337237966   0.614271827
C       -1.142370001  -1.219194490   1.082295532
C        0.663354853   2.756140895  -0.618867008
C       -0.032368734   2.828996130   0.607964472
C       -2.720907404  -0.804298265  -0.609882586
C       -2.399830377  -1.477599951   0.605825894
H        1.845213368   0.131298166   2.000128222
H        3.195802791  -1.557683273   1.151878709
H        2.717796924  -2.738206529  -1.017347817
H        1.016692562   3.664308580  -1.097927860
H       -0.255098791   3.777655153   1.122533337
H       -1.101742306   1.563867226   2.011966344
H       -2.788087673  -2.304380455   1.117245646
H       -0.820093090  -1.627331060   2.048909392
H       -3.647469753  -0.922117347  -1.147865337
H        0.574232825  -2.032043629  -1.947189351
H        1.306224079   1.614751114  -2.052392345
H       -2.098918630   0.452633275  -1.933543316


     kinetic energy (Ekin) =     0.20575405 Ry
     temperature           =   902.38768376 K 
     Ekin + Etot (const)   =  -243.41729826 Ry
     Message from routine dynamics:
     Total linear momentum <> 0

     Linear momentum :   -0.0675802320    0.2095805503   -0.2710223007

     Writing output data file x0.save

     second order wave-functions extrapolation
     second order charge density extrapolation

     Check: negative/imaginary core charge=   -0.000002    0.000000

     total cpu time spent up to now is       34.5 secs

     Self-consistent Calculation

     iteration #  1     ecut=    30.00 Ry     beta= 0.30
     Davidson diagonalization with overlap
     ethr =  1.00E-06,  avg # of iterations = 13.0

     total cpu time spent up to now is       36.1 secs

     total energy              =    -243.65479963 Ry
     Harris-Foulkes estimate   =    -243.65628837 Ry
     estimated scf accuracy    <       0.00789537 Ry

     iteration #  2     ecut=    30.00 Ry     beta= 0.30
     Davidson diagonalization with overlap
     ethr =  1.10E-05,  avg # of iterations =  3.0

     total cpu time spent up to now is       37.3 secs

     total energy              =    -243.65594223 Ry
     Harris-Foulkes estimate   =    -243.65593130 Ry
     estimated scf accuracy    <       0.00225011 Ry

     iteration #  3     ecut=    30.00 Ry     beta= 0.30
     Davidson diagonalization with overlap
     ethr =  3.13E-06,  avg # of iterations =  3.0

     total cpu time spent up to now is       38.6 secs

     total energy              =    -243.65655270 Ry
     Harris-Foulkes estimate   =    -243.65628861 Ry
     estimated scf accuracy    <       0.00081026 Ry

     iteration #  4     ecut=    30.00 Ry     beta= 0.30
     Davidson diagonalization with overlap
     ethr =  1.13E-06,  avg # of iterations =  3.0

     total cpu time spent up to now is       39.8 secs

     total energy              =    -243.65677841 Ry
     Harris-Foulkes estimate   =    -243.65666614 Ry
     estimated scf accuracy    <       0.00024284 Ry

     iteration #  5     ecut=    30.00 Ry     beta= 0.30
     Davidson diagonalization with overlap
     ethr =  3.37E-07,  avg # of iterations =  2.0

     total cpu time spent up to now is       41.0 secs

     End of self-consistent calculation

          k = 0.0000 0.0000 0.0000 (  3310 PWs)   bands (ev):

   -18.8620 -18.4286 -18.0686 -15.2434 -13.9360 -13.7493 -11.8543 -10.8352
   -10.7363 -10.0891  -8.8987  -8.5102  -8.2514  -7.8386  -7.5376  -7.0350
    -6.0985  -5.8412  -5.6534  -5.1720  -4.8697  -4.7634  -4.3442  -4.3073
    -4.1362  -3.7709  -3.1438  -2.4865  -2.0633  -1.9442  -1.6091  -1.4315
    -1.2314  -0.3321  -0.1135   0.3363   1.9346   2.6323   3.0076   3.2685
     5.1135   5.1958   5.2707

     the Fermi energy is     1.3015 ev

!    total energy              =    -243.65684360 Ry
     Harris-Foulkes estimate   =    -243.65680661 Ry
     estimated scf accuracy    <       0.00003285 Ry

     convergence has been achieved in   5 iterations

     Forces acting on atoms (cartesian axes, Ry/au):

     atom    1 type  3   force =     0.00242600    0.03297128    0.01608238
     atom    2 type  4   force =    -0.03204798    0.04026549   -0.02253223
     atom    3 type  4   force =     0.03016390    0.02571091    0.00392901
     atom    4 type  4   force =    -0.00382209   -0.01945570   -0.01766660
     atom    5 type  1   force =    -0.01056474    0.02878361    0.00631716
     atom    6 type  1   force =    -0.04618550    0.02825938   -0.00265484
     atom    7 type  1   force =     0.02954648   -0.03578746   -0.01292757
     atom    8 type  1   force =    -0.30850099    0.06385577   -0.04492364
     atom    9 type  1   force =     0.02232569    0.04380643   -0.01742558
     atom   10 type  1   force =    -0.01394146    0.00426349    0.01342305
     atom   11 type  1   force =    -0.02623554   -0.03017881    0.03626071
     atom   12 type  1   force =     0.03083488   -0.03028089   -0.02241773
     atom   13 type  1   force =     0.18647421   -0.01053615   -0.00678364
     atom   14 type  2   force =     0.00642556    0.00506437    0.01463435
     atom   15 type  2   force =     0.11511854   -0.05719030    0.14203195
     atom   16 type  2   force =    -0.02266453    0.01122640    0.00416314
     atom   17 type  2   force =    -0.01200210   -0.04703950   -0.00561879
     atom   18 type  2   force =     0.01239676   -0.01546550   -0.01198557
     atom   19 type  2   force =     0.01812501    0.00170252   -0.01738206
     atom   20 type  2   force =    -0.00771781   -0.06021630    0.00420334
     atom   21 type  2   force =    -0.00512333   -0.00816547    0.00274840
     atom   22 type  2   force =     0.01020504    0.01228781   -0.02280947
     atom   23 type  2   force =     0.01312510    0.01368689   -0.00143328
     atom   24 type  2   force =     0.00941178   -0.01066431   -0.01174028
     atom   25 type  2   force =     0.00222712    0.01309603   -0.02549222

     Total force =     0.452697     Total SCF correction =     0.005835

     Entering Dynamics:    iteration =     4
                           time      =   0.0040 pico-seconds


     Andersen thermostat:    3 collisions

ATOMIC_POSITIONS (angstrom)
Ir      -0.001900493   0.002760211  -0.008201272
N        0.958975616  -1.540449268  -1.131495654
N       -1.801949698  -0.067066028  -1.120937844
N        0.884825902   1.577613139  -1.133386314
C       -0.482695416   1.583694710   1.077190689
C        1.603826862  -0.390954433   1.074922791
C        2.057440256  -1.947233899  -0.573261957
C        2.423870846  -1.329032430   0.613891438
C       -1.141276166  -1.218555315   1.085103548
C        0.663600057   2.755750438  -0.622267592
C       -0.035717224   2.829790288   0.609923876
C       -2.718997677  -0.804144119  -0.611737758
C       -2.388340396  -1.483400117   0.602137926
H        1.837676385   0.143561910   2.004725747
H        3.132247833  -1.520232917   1.213048149
H        2.735947195  -2.735961898  -0.993442019
H        0.996420582   3.639906709  -1.099209910
H       -0.254952826   3.777779560   1.119258684
H       -1.117742600   1.561729050   2.005613048
H       -2.644135071  -2.426512440   1.123572080
H       -0.812239392  -1.613067917   2.064913519
H       -3.623818721  -0.917254079  -1.178007520
H        0.576364278  -2.077157414  -1.952829810
H        1.292523112   1.628662877  -2.081620567
H       -2.119631812   0.476291848  -1.927481387


     kinetic energy (Ekin) =     0.24067841 Ry
     temperature           =  1055.55750120 K 
     Ekin + Etot (const)   =  -243.41616519 Ry
     Message from routine dynamics:
     Total linear momentum <> 0

     Linear momentum :   -0.3763418265   -0.2485446660    0.0464356436

     Writing output data file x0.save

     second order wave-functions extrapolation
     second order charge density extrapolation

     Check: negative/imaginary core charge=   -0.000002    0.000000

     total cpu time spent up to now is       43.0 secs

     Self-consistent Calculation

     iteration #  1     ecut=    30.00 Ry     beta= 0.30
     Davidson diagonalization with overlap
     ethr =  1.00E-06,  avg # of iterations = 16.0

     total cpu time spent up to now is       44.6 secs

     total energy              =    -243.66365359 Ry
     Harris-Foulkes estimate   =    -243.66353996 Ry
     estimated scf accuracy    <       0.00567088 Ry

     iteration #  2     ecut=    30.00 Ry     beta= 0.30
     Davidson diagonalization with overlap
     ethr =  7.88E-06,  avg # of iterations =  2.0

     total cpu time spent up to now is       45.8 secs

     total energy              =    -243.66502370 Ry
     Harris-Foulkes estimate   =    -243.66430387 Ry
     estimated scf accuracy    <       0.00135647 Ry

     iteration #  3     ecut=    30.00 Ry     beta= 0.30
     Davidson diagonalization with overlap
     ethr =  1.88E-06,  avg # of iterations =  7.0

     total cpu time spent up to now is       47.1 secs

     total energy              =    -243.66566095 Ry
     Harris-Foulkes estimate   =    -243.66531242 Ry
     estimated scf accuracy    <       0.00060705 Ry

     iteration #  4     ecut=    30.00 Ry     beta= 0.30
     Davidson diagonalization with overlap
     ethr =  8.43E-07,  avg # of iterations =  1.0

     total cpu time spent up to now is       48.3 secs

     total energy              =    -243.66603679 Ry
     Harris-Foulkes estimate   =    -243.66570577 Ry
     estimated scf accuracy    <       0.00021795 Ry

     iteration #  5     ecut=    30.00 Ry     beta= 0.30
     Davidson diagonalization with overlap
     ethr =  3.03E-07,  avg # of iterations =  3.0

     total cpu time spent up to now is       49.5 secs

     End of self-consistent calculation

          k = 0.0000 0.0000 0.0000 (  3310 PWs)   bands (ev):

   -18.8170 -18.4314 -17.9894 -15.0855 -13.9910 -13.7032 -11.8570 -10.8473
   -10.6959  -9.6939  -8.7918  -8.4997  -8.1881  -7.7420  -7.5793  -6.9972
    -6.2033  -5.7676  -5.6194  -5.1499  -4.8754  -4.7394  -4.4110  -4.2606
    -4.1492  -3.7663  -3.2232  -2.4849  -2.0804  -1.9524  -1.5635  -1.4379
    -1.1806  -0.3137  -0.1141   0.3502   1.9209   2.6230   2.9843   3.2574
     5.0306   5.1756   5.2755

     the Fermi energy is     1.1207 ev

!    total energy              =    -243.66612497 Ry
     Harris-Foulkes estimate   =    -243.66608719 Ry
     estimated scf accuracy    <       0.00006625 Ry

     convergence has been achieved in   5 iterations

     Forces acting on atoms (cartesian axes, Ry/au):

     atom    1 type  3   force =     0.00180017    0.04205310    0.01526817
     atom    2 type  4   force =    -0.03608163    0.01595915   -0.04428570
     atom    3 type  4   force =     0.02875891    0.04009295   -0.00923148
     atom    4 type  4   force =     0.00168921   -0.00845577   -0.03755887
     atom    5 type  1   force =    -0.01368648    0.03291103    0.00605249
     atom    6 type  1   force =    -0.07048246    0.06160599    0.01168352
     atom    7 type  1   force =     0.02640347   -0.04458455   -0.02438084
     atom    8 type  1   force =    -0.26017089    0.04711980   -0.05285245
     atom    9 type  1   force =     0.04184424    0.05675837   -0.00979352
     atom   10 type  1   force =    -0.02885331   -0.03441987    0.03574985
     atom   11 type  1   force =    -0.01869840   -0.03836597    0.02567553
     atom   12 type  1   force =     0.03467732   -0.03794736   -0.02168515
     atom   13 type  1   force =     0.13071916   -0.07739774    0.03246124
     atom   14 type  2   force =     0.00439515   -0.00360248    0.00427297
     atom   15 type  2   force =     0.16142258   -0.07603888    0.15180881
     atom   16 type  2   force =    -0.02861894    0.01172273    0.00433946
     atom   17 type  2   force =     0.00194514   -0.01103967   -0.02318869
     atom   18 type  2   force =     0.01115117   -0.01175472   -0.00912817
     atom   19 type  2   force =     0.02020497    0.00130994   -0.01751119
     atom   20 type  2   force =    -0.03334888    0.01150288   -0.03397605
     atom   21 type  2   force =    -0.00864143   -0.00753631   -0.00854917
     atom   22 type  2   force =    -0.00057301    0.00708070   -0.01840150
     atom   23 type  2   force =     0.02401949    0.03346019    0.02197859
     atom   24 type  2   force =     0.00097622   -0.01335510    0.01119663
     atom   25 type  2   force =     0.00914824    0.00292159   -0.00994449

     Total force =     0.443970     Total SCF correction =     0.017963

     Entering Dynamics:    iteration =     5
                           time      =   0.0050 pico-seconds


     Andersen thermostat:    3 collisions

ATOMIC_POSITIONS (angstrom)
Ir      -0.001206689   0.003520227  -0.008203297
N        0.957551886  -1.543985332  -1.133290917
N       -1.802410510  -0.064014179  -1.122066220
N        0.896335881   1.573679932  -1.134426375
C       -0.483858657   1.582575470   1.078499986
C        1.596019367  -0.390651923   1.075329022
C        2.050778036  -1.950977788  -0.569534375
C        2.398862430  -1.319214465   0.612061460
C       -1.139937583  -1.216104621   1.087351371
C        0.662629729   2.755288182  -0.625287657
C       -0.040071493   2.830431138   0.612055711
C       -2.716991237  -0.804134634  -0.614398749
C       -2.374769926  -1.490159804   0.598762550
H        1.830602574   0.155577349   2.010017998
H        3.107839134  -1.500875284   1.311257188
H        2.746427747  -2.730190263  -0.968825115
H        0.976008224   3.613424412  -1.106562307
H       -0.252679372   3.775647392   1.113377437
H       -1.135824838   1.554333035   2.006982228
H       -2.509017391  -2.545171581   1.121170743
H       -0.807134033  -1.600022160   2.078453688
H       -3.600928404  -0.910007352  -1.213040745
H        0.583793280  -2.113389258  -1.953413836
H        1.278443078   1.639923820  -2.108448448
H       -2.138710917   0.501309299  -1.924227149


     kinetic energy (Ekin) =     0.25203823 Ry
     temperature           =  1105.37892910 K 
     Ekin + Etot (const)   =  -243.41408674 Ry
     Message from routine dynamics:
     Total linear momentum <> 0

     Linear momentum :    0.6851809452   -0.7068545789    0.3958143272

     Writing output data file x0.save

     second order wave-functions extrapolation
     second order charge density extrapolation

     Check: negative/imaginary core charge=   -0.000002    0.000000

     total cpu time spent up to now is       51.4 secs

     Self-consistent Calculation

     iteration #  1     ecut=    30.00 Ry     beta= 0.30
     Davidson diagonalization with overlap
     ethr =  1.00E-06,  avg # of iterations = 17.0

     total cpu time spent up to now is       53.1 secs

     total energy              =    -243.66482756 Ry
     Harris-Foulkes estimate   =    -243.66657277 Ry
     estimated scf accuracy    <       0.00705147 Ry

     iteration #  2     ecut=    30.00 Ry     beta= 0.30
     Davidson diagonalization with overlap
     ethr =  9.79E-06,  avg # of iterations =  5.0

     total cpu time spent up to now is       54.4 secs

     total energy              =    -243.66605604 Ry
     Harris-Foulkes estimate   =    -243.66574107 Ry
     estimated scf accuracy    <       0.00093802 Ry

     iteration #  3     ecut=    30.00 Ry     beta= 0.30
     Davidson diagonalization with overlap
     ethr =  1.30E-06,  avg # of iterations =  7.0

     total cpu time spent up to now is       55.7 secs

     total energy              =    -243.66646284 Ry
     Harris-Foulkes estimate   =    -243.66638057 Ry
     estimated scf accuracy    <       0.00044393 Ry

     iteration #  4     ecut=    30.00 Ry     beta= 0.30
     Davidson diagonalization with overlap
     ethr =  6.17E-07,  avg # of iterations =  2.0

     total cpu time spent up to now is       56.9 secs

     total energy              =    -243.66664335 Ry
     Harris-Foulkes estimate   =    -243.66650052 Ry
     estimated scf accuracy    <       0.00017766 Ry

     iteration #  5     ecut=    30.00 Ry     beta= 0.30
     Davidson diagonalization with overlap
     ethr =  2.47E-07,  avg # of iterations =  4.0

     total cpu time spent up to now is       58.2 secs

     End of self-consistent calculation

          k = 0.0000 0.0000 0.0000 (  3310 PWs)   bands (ev):

   -18.8127 -18.4238 -17.9589 -14.9024 -13.9913 -13.7115 -11.8331 -10.8978
   -10.6429  -9.3579  -8.6775  -8.4524  -8.1704  -7.6449  -7.6050  -6.8829
    -6.1394  -5.7309  -5.5681  -5.1200  -4.9050  -4.7004  -4.4057  -4.2429
    -4.1569  -3.7423  -3.2765  -2.4757  -2.0977  -1.9804  -1.4900  -1.4591
    -1.0490  -0.2591  -0.1244   0.4239   1.9096   2.6316   2.9615   3.2384
     4.8975   5.1365   5.2901

     the Fermi energy is     1.1334 ev

!    total energy              =    -243.66669443 Ry
     Harris-Foulkes estimate   =    -243.66667761 Ry
     estimated scf accuracy    <       0.00007158 Ry

     convergence has been achieved in   5 iterations

     Forces acting on atoms (cartesian axes, Ry/au):

     atom    1 type  3   force =    -0.00518638    0.04805727    0.01119390
     atom    2 type  4   force =    -0.04252893    0.00037616   -0.05799989
     atom    3 type  4   force =     0.02581377    0.05478532   -0.02244189
     atom    4 type  4   force =     0.00392652    0.00012865   -0.05172385
     atom    5 type  1   force =    -0.01974262    0.03193410    0.01106135
     atom    6 type  1   force =    -0.09232864    0.09643912    0.02855695
     atom    7 type  1   force =     0.03181645   -0.04182440   -0.01960212
     atom    8 type  1   force =    -0.10194275   -0.00640353    0.04098434
     atom    9 type  1   force =     0.05917870    0.06565330    0.00059237
     atom   10 type  1   force =    -0.04282112   -0.07522669    0.05755396
     atom   11 type  1   force =    -0.01089609   -0.04816177    0.01383996
     atom   12 type  1   force =     0.03484890   -0.04419712   -0.02419937
     atom   13 type  1   force =     0.09429559   -0.13549117    0.05620798
     atom   14 type  2   force =     0.00167609   -0.01110420   -0.00558615
     atom   15 type  2   force =     0.07440628   -0.05574183    0.05371685
     atom   16 type  2   force =    -0.02976808    0.00663339    0.00061363
     atom   17 type  2   force =     0.01513446    0.02802844   -0.04196115
     atom   18 type  2   force =     0.00881829   -0.00344732   -0.00391655
     atom   19 type  2   force =     0.02769451    0.00281004   -0.02581026
     atom   20 type  2   force =    -0.05231409    0.06840353   -0.06072096
     atom   21 type  2   force =    -0.01051863   -0.00637551   -0.01732224
     atom   22 type  2   force =    -0.00850916    0.00155178   -0.01120676
     atom   23 type  2   force =     0.02677134    0.04693614    0.03154252
     atom   24 type  2   force =    -0.00433552   -0.01520112    0.03013554
     atom   25 type  2   force =     0.01651110   -0.00856257    0.00649183

     Total force =     0.373486     Total SCF correction =     0.015502

     Entering Dynamics:    iteration =     6
                           time      =   0.0060 pico-seconds


     Andersen thermostat:    4 collisions

ATOMIC_POSITIONS (angstrom)
Ir      -0.000329553   0.004751409  -0.008033529
N        0.955564920  -1.547105589  -1.135956113
N       -1.802224091  -0.059582842  -1.123434734
N        0.908105431   1.570158148  -1.136225208
C       -0.492407456   1.573929040   1.084470980
C        1.586494817  -0.387948288   1.076482452
C        2.044963020  -1.955176428  -0.566054335
C        2.371938377  -1.309119622   0.611235372
C       -1.137186619  -1.211888693   1.089768775
C        0.660964941   2.753681239  -0.626961579
C       -0.044460799   2.830486336   0.614630760
C       -2.714545098  -0.805342169  -0.618306821
C       -2.359061724  -1.499308960   0.596705514
H        1.824131686   0.165266457   2.014091469
H        3.128720331  -1.531001386   1.307417931
H        2.749765075  -2.722375373  -0.943899700
H        0.959514205   3.594255956  -1.124094323
H       -0.250598032   3.776266060   1.126542313
H       -1.146894618   1.548038406   2.002150499
H       -2.386597056  -2.646570637   1.103968383
H       -0.804429871  -1.588137841   2.087883936
H       -3.579944262  -0.901969206  -1.250677366
H        0.598007321  -2.137649425  -1.946070139
H        1.263485028   1.647849171  -2.127695209
H       -2.153532553   0.524626539  -1.919216327


     kinetic energy (Ekin) =     0.21962104 Ry
     temperature           =   963.20496351 K 
     Ekin + Etot (const)   =  -243.44707339 Ry
     Message from routine dynamics:
     Total linear momentum <> 0

     Linear momentum :   -0.2101520929   -0.4524814097   -0.1740122041

     Writing output data file x0.save

     second order wave-functions extrapolation
     second order charge density extrapolation

     Check: negative/imaginary core charge=   -0.000002    0.000000

     total cpu time spent up to now is       60.1 secs

     Self-consistent Calculation

     iteration #  1     ecut=    30.00 Ry     beta= 0.30
     Davidson diagonalization with overlap
     ethr =  1.00E-06,  avg # of iterations =  9.0

     total cpu time spent up to now is       61.6 secs

     total energy              =    -243.64922779 Ry
     Harris-Foulkes estimate   =    -243.65024658 Ry
     estimated scf accuracy    <       0.00390506 Ry

     iteration #  2     ecut=    30.00 Ry     beta= 0.30
     Davidson diagonalization with overlap
     ethr =  5.42E-06,  avg # of iterations =  1.0

     total cpu time spent up to now is       62.8 secs

     total energy              =    -243.64950548 Ry
     Harris-Foulkes estimate   =    -243.64955869 Ry
     estimated scf accuracy    <       0.00090802 Ry

     iteration #  3     ecut=    30.00 Ry     beta= 0.30
     Davidson diagonalization with overlap
     ethr =  1.26E-06,  avg # of iterations =  8.0

     total cpu time spent up to now is       64.2 secs

     total energy              =    -243.64966659 Ry
     Harris-Foulkes estimate   =    -243.64972460 Ry
     estimated scf accuracy    <       0.00037900 Ry

     iteration #  4     ecut=    30.00 Ry     beta= 0.30
     Davidson diagonalization with overlap
     ethr =  5.26E-07,  avg # of iterations =  3.0

     total cpu time spent up to now is       65.4 secs

     total energy              =    -243.64972145 Ry
     Harris-Foulkes estimate   =    -243.64970921 Ry
     estimated scf accuracy    <       0.00011878 Ry

     iteration #  5     ecut=    30.00 Ry     beta= 0.30
     Davidson diagonalization with overlap
     ethr =  1.65E-07,  avg # of iterations =  3.0

     total cpu time spent up to now is       66.6 secs

     End of self-consistent calculation

          k = 0.0000 0.0000 0.0000 (  3310 PWs)   bands (ev):

   -18.8076 -18.4359 -17.8992 -14.8330 -14.0251 -13.6602 -11.8288 -10.9037
   -10.6257  -9.2554  -8.6169  -8.4517  -8.1376  -7.7050  -7.5279  -6.7427
    -6.0984  -5.6999  -5.6018  -5.1127  -4.9281  -4.6866  -4.3816  -4.2185
    -4.1699  -3.7453  -3.3086  -2.4663  -2.1471  -2.0078  -1.4951  -1.4681
    -1.0051  -0.2271  -0.1370   0.4461   1.9054   2.6080   2.9524   3.2235
     4.6842   5.1066   5.2898

     the Fermi energy is     1.1341 ev

!    total energy              =    -243.64973300 Ry
     Harris-Foulkes estimate   =    -243.64974176 Ry
     estimated scf accuracy    <       0.00002567 Ry

     convergence has been achieved in   5 iterations

     Forces acting on atoms (cartesian axes, Ry/au):

     atom    1 type  3   force =    -0.01451150    0.05421426    0.00766930
     atom    2 type  4   force =    -0.03909123   -0.00738722   -0.06042413
     atom    3 type  4   force =     0.02348116    0.06386373   -0.02809284
     atom    4 type  4   force =     0.00074275    0.00701090   -0.05444412
     atom    5 type  1   force =    -0.00918730    0.04628503   -0.00295249
     atom    6 type  1   force =    -0.09948028    0.12025730    0.05053648
     atom    7 type  1   force =     0.02256077   -0.02614564   -0.01441108
     atom    8 type  1   force =    -0.01157927   -0.05176255    0.07401211
     atom    9 type  1   force =     0.07107914    0.07019718    0.00896368
     atom   10 type  1   force =    -0.04948680   -0.09845503    0.06951846
     atom   11 type  1   force =    -0.01109456   -0.05723626    0.01472420
     atom   12 type  1   force =     0.03582415   -0.04846912   -0.02916113
     atom   13 type  1   force =     0.07630556   -0.16332770    0.05596958
     atom   14 type  2   force =    -0.00023897   -0.01518235   -0.01142532
     atom   15 type  2   force =     0.02967606   -0.03895999    0.01054945
     atom   16 type  2   force =    -0.02542208   -0.00277435   -0.00445471
     atom   17 type  2   force =     0.02029095    0.04826961   -0.05046525
     atom   18 type  2   force =     0.01018388   -0.00783102   -0.00722361
     atom   19 type  2   force =     0.02398503    0.00206158   -0.01930789
     atom   20 type  2   force =    -0.06856699    0.09792812   -0.06962079
     atom   21 type  2   force =    -0.01058633   -0.00579783   -0.02174596
     atom   22 type  2   force =    -0.01217345   -0.00380681   -0.00101347
     atom   23 type  2   force =     0.02109180    0.04993358    0.02686669
     atom   24 type  2   force =    -0.00538322   -0.01638218    0.03917508
     atom   25 type  2   force =     0.02158075   -0.01650324    0.01675776

     Total force =     0.403626     Total SCF correction =     0.011968

     Entering Dynamics:    iteration =     7
                           time      =   0.0070 pico-seconds


     Andersen thermostat:    1 collisions

ATOMIC_POSITIONS (angstrom)
Ir       0.000200832   0.005628909  -0.007758920
N        0.952557557  -1.550780337  -1.139596582
N       -1.801949803  -0.054444019  -1.125205879
N        0.919560113   1.566336889  -1.138893398
C       -0.491794261   1.578316691   1.087674211
C        1.574587448  -0.383184348   1.078774672
C        2.039285981  -1.960338766  -0.562777018
C        2.344447128  -1.300517602   0.612032972
C       -1.133295515  -1.206646469   1.092466271
C        0.657949965   2.749617024  -0.627104632
C       -0.049407289   2.828935650   0.617604886
C       -2.711687023  -0.807974499  -0.622722283
C       -2.342105429  -1.512255354   0.595899492
H        1.817273906   0.170791804   2.015445299
H        3.156584085  -1.571148778   1.306272432
H        2.746511750  -2.715667584  -0.919976743
H        0.947690759   3.586554877  -1.153963312
H       -0.246335955   3.774531936   1.138022624
H       -1.152383804   1.541827989   1.992657292
H       -2.281395953  -2.724269137   1.069710160
H       -0.804661633  -1.578105444   2.092052095
H       -3.562287024  -0.895292501  -1.288468709
H        0.617089221  -2.150032300  -1.932012997
H        1.246872821   1.651315187  -2.137196402
H       -2.163365881   0.543454621  -1.909982354


     kinetic energy (Ekin) =     0.19609637 Ry
     temperature           =   860.03141605 K 
     Ekin + Etot (const)   =  -243.45363663 Ry
     Message from routine dynamics:
     Total linear momentum <> 0

     Linear momentum :    0.3627671849    0.4685234496   -0.1049994555

     Writing output data file x0.save

     second order wave-functions extrapolation
     second order charge density extrapolation

     Check: negative/imaginary core charge=   -0.000002    0.000000

     total cpu time spent up to now is       68.6 secs

     Self-consistent Calculation

     iteration #  1     ecut=    30.00 Ry     beta= 0.30
     Davidson diagonalization with overlap
     ethr =  1.00E-06,  avg # of iterations =  5.0

     total cpu time spent up to now is       70.2 secs

     total energy              =    -243.63632022 Ry
     Harris-Foulkes estimate   =    -243.63809227 Ry
     estimated scf accuracy    <       0.00435284 Ry

     iteration #  2     ecut=    30.00 Ry     beta= 0.30
     Davidson diagonalization with overlap
     ethr =  6.05E-06,  avg # of iterations =  3.0

     total cpu time spent up to now is       71.4 secs

     total energy              =    -243.63692185 Ry
     Harris-Foulkes estimate   =    -243.63718890 Ry
     estimated scf accuracy    <       0.00091426 Ry

     iteration #  3     ecut=    30.00 Ry     beta= 0.30
     Davidson diagonalization with overlap
     ethr =  1.27E-06,  avg # of iterations =  6.0

     total cpu time spent up to now is       72.7 secs

     total energy              =    -243.63718081 Ry
     Harris-Foulkes estimate   =    -243.63720261 Ry
     estimated scf accuracy    <       0.00019548 Ry

     iteration #  4     ecut=    30.00 Ry     beta= 0.30
     Davidson diagonalization with overlap
     ethr =  2.71E-07,  avg # of iterations =  2.0

     total cpu time spent up to now is       73.9 secs

     End of self-consistent calculation

          k = 0.0000 0.0000 0.0000 (  3310 PWs)   bands (ev):

   -18.8014 -18.4331 -17.9049 -14.7492 -14.0377 -13.7288 -11.8155 -10.9029
   -10.6067  -9.2076  -8.5738  -8.4114  -8.1663  -7.7382  -7.4741  -6.5836
    -6.0401  -5.7102  -5.6321  -5.0970  -4.9843  -4.6921  -4.3669  -4.2227
    -4.1703  -3.7326  -3.3007  -2.4630  -2.1916  -2.0353  -1.5149  -1.4581
    -0.9587  -0.1883  -0.1761   0.5005   1.8977   2.6013   2.9521   3.2109
     4.4946   5.1097   5.2931

     the Fermi energy is     1.1379 ev

!    total energy              =    -243.63721794 Ry
     Harris-Foulkes estimate   =    -243.63720583 Ry
     estimated scf accuracy    <       0.00005808 Ry

     convergence has been achieved in   4 iterations

     Forces acting on atoms (cartesian axes, Ry/au):

     atom    1 type  3   force =    -0.02163909    0.06184448    0.00288041
     atom    2 type  4   force =    -0.02807311   -0.00414669   -0.04731420
     atom    3 type  4   force =     0.02208461    0.06548206   -0.02424504
     atom    4 type  4   force =    -0.00737115    0.01061469   -0.04504296
     atom    5 type  1   force =    -0.00861009    0.03514744   -0.00975665
     atom    6 type  1   force =    -0.10185531    0.13523493    0.06624386
     atom    7 type  1   force =     0.00768380   -0.00439363   -0.00594560
     atom    8 type  1   force =     0.07037122   -0.09746342    0.09924546
     atom    9 type  1   force =     0.07792489    0.07282308    0.01435219
     atom   10 type  1   force =    -0.04133892   -0.08889463    0.05582996
     atom   11 type  1   force =    -0.00477071   -0.04883511    0.01140748
     atom   12 type  1   force =     0.03536883   -0.05172111   -0.03471137
     atom   13 type  1   force =     0.05761634   -0.17135998    0.04108929
     atom   14 type  2   force =    -0.00148509   -0.01550883   -0.01187391
     atom   15 type  2   force =    -0.01613652   -0.01686576   -0.02531310
     atom   16 type  2   force =    -0.01643558   -0.01457100   -0.01056055
     atom   17 type  2   force =     0.01338945    0.03643383   -0.04001575
     atom   18 type  2   force =     0.01102773   -0.00913373   -0.00967545
     atom   19 type  2   force =     0.02142125    0.00350923   -0.01297446
     atom   20 type  2   force =    -0.07969580    0.10894940   -0.06818045
     atom   21 type  2   force =    -0.00810737   -0.00633080   -0.02075826
     atom   22 type  2   force =    -0.01162225   -0.00855785    0.01089445
     atom   23 type  2   force =     0.00912793    0.04266210    0.00875259
     atom   24 type  2   force =    -0.00203507   -0.01601095    0.03690945
     atom   25 type  2   force =     0.02316002   -0.01890776    0.01876262

     Total force =     0.418231     Total SCF correction =     0.007327

     Entering Dynamics:    iteration =     8
                           time      =   0.0080 pico-seconds


     Andersen thermostat:    1 collisions

ATOMIC_POSITIONS (angstrom)
Ir       0.000729515   0.006765783  -0.007310443
N        0.949079195  -1.554348970  -1.143904915
N       -1.801258134  -0.047965836  -1.127236293
N        0.930910464   1.562883194  -1.142189226
C       -0.492106550   1.578311171   1.085824986
C        1.560602447  -0.375447528   1.082605333
C        2.033793878  -1.965412296  -0.559452358
C        2.318435644  -1.293749161   0.615050670
C       -1.127768623  -1.199720501   1.095630366
C        0.654107344   2.743896222  -0.625924347
C       -0.054426096   2.826555818   0.620984789
C       -2.708072169  -0.811495587  -0.627684568
C       -2.323932825  -1.528561685   0.596112333
H        1.810076504   0.172676172   2.014044191
H        3.180498897  -1.615271424   1.299061301
H        2.739235810  -2.712369742  -0.898485183
H        0.939191975   3.588008687  -1.193519871
H       -0.239331016   3.770727314   1.147289577
H       -1.152569726   1.536661619   1.980138029
H       -2.195801371  -2.774948821   1.018826103
H       -0.806864389  -1.569453055   2.091276689
H       -3.547466658  -0.890544429  -1.323406094
H        0.638445973  -2.151725976  -1.915629537
H        1.229785507   1.651016527  -2.137434945
H       -2.167467605   0.557804412  -1.895956134


     kinetic energy (Ekin) =     0.18230988 Ry
     temperature           =   799.56719204 K 
     Ekin + Etot (const)   =  -243.45490806 Ry
     Message from routine dynamics:
     Total linear momentum <> 0

     Linear momentum :   -0.0290019802   -0.1985786786   -0.1881740020

     Writing output data file x0.save

     second order wave-functions extrapolation
     second order charge density extrapolation

     Check: negative/imaginary core charge=   -0.000002    0.000000

     total cpu time spent up to now is       75.7 secs

     Self-consistent Calculation

     iteration #  1     ecut=    30.00 Ry     beta= 0.30
     Davidson diagonalization with overlap
     ethr =  1.00E-06,  avg # of iterations =  5.0

     total cpu time spent up to now is       77.2 secs

     total energy              =    -243.62981443 Ry
     Harris-Foulkes estimate   =    -243.63044393 Ry
     estimated scf accuracy    <       0.00163735 Ry

     iteration #  2     ecut=    30.00 Ry     beta= 0.30
     Davidson diagonalization with overlap
     ethr =  2.27E-06,  avg # of iterations =  3.0

     total cpu time spent up to now is       78.5 secs

     total energy              =    -243.63007279 Ry
     Harris-Foulkes estimate   =    -243.63022402 Ry
     estimated scf accuracy    <       0.00057200 Ry

     iteration #  3     ecut=    30.00 Ry     beta= 0.30
     Davidson diagonalization with overlap
     ethr =  7.94E-07,  avg # of iterations =  2.0

     total cpu time spent up to now is       79.7 secs

     End of self-consistent calculation

          k = 0.0000 0.0000 0.0000 (  3310 PWs)   bands (ev):

   -18.8028 -18.4227 -17.9173 -14.6866 -14.0583 -13.8026 -11.8076 -10.8802
   -10.5993  -9.2050  -8.5355  -8.3843  -8.2265  -7.7498  -7.4542  -6.4590
    -6.0027  -5.7412  -5.6661  -5.0968  -5.0274  -4.7092  -4.3820  -4.2025
    -4.1734  -3.7033  -3.2758  -2.4720  -2.2375  -2.0844  -1.5514  -1.4531
    -0.9414  -0.2153  -0.1604   0.5523   1.8929   2.5994   2.9640   3.2050
     4.3611   5.1325   5.2994

     the Fermi energy is     1.2391 ev

!    total energy              =    -243.63018836 Ry
     Harris-Foulkes estimate   =    -243.63017215 Ry
     estimated scf accuracy    <       0.00006867 Ry

     convergence has been achieved in   3 iterations

     Forces acting on atoms (cartesian axes, Ry/au):

     atom    1 type  3   force =    -0.02979247    0.07040339   -0.00512951
     atom    2 type  4   force =    -0.01050165    0.01069844   -0.02055648
     atom    3 type  4   force =     0.02218293    0.05736308   -0.01090033
     atom    4 type  4   force =    -0.01857082    0.01043987   -0.02485682
     atom    5 type  1   force =    -0.00886084    0.02643734   -0.01280306
     atom    6 type  1   force =    -0.09544388    0.13559497    0.07156159
     atom    7 type  1   force =    -0.00950429    0.02032855    0.00513096
     atom    8 type  1   force =     0.12918196   -0.13338123    0.10962544
     atom    9 type  1   force =     0.07828584    0.07356716    0.01382325
     atom   10 type  1   force =    -0.02592334   -0.05643666    0.02608619
     atom   11 type  1   force =     0.00260070   -0.04174312    0.00394346
     atom   12 type  1   force =     0.03649750   -0.05380368   -0.03945815
     atom   13 type  1   force =     0.04163457   -0.16897173    0.01972627
     atom   14 type  2   force =    -0.00158642   -0.01160271   -0.00620841
     atom   15 type  2   force =    -0.04843750    0.00380702   -0.04465415
     atom   16 type  2   force =    -0.00597454   -0.02600415   -0.01631360
     atom   17 type  2   force =    -0.00038518    0.00305207   -0.01457676
     atom   18 type  2   force =     0.01051713   -0.00815996   -0.00973143
     atom   19 type  2   force =     0.01599635    0.00271952   -0.00508014
     atom   20 type  2   force =    -0.08686617    0.11117324   -0.06196814
     atom   21 type  2   force =    -0.00352253   -0.00865295   -0.01479295
     atom   22 type  2   force =    -0.00893876   -0.01257653    0.02274789
     atom   23 type  2   force =    -0.00740552    0.02523147   -0.02079033
     atom   24 type  2   force =     0.00416833   -0.01448477    0.02301169
     atom   25 type  2   force =     0.02064862   -0.01499861    0.01216353

     Total force =     0.424671     Total SCF correction =     0.010595

     Entering Dynamics:    iteration =     9
                           time      =   0.0090 pico-seconds


     Andersen thermostat:    4 collisions

ATOMIC_POSITIONS (angstrom)
Ir      -0.000038986   0.007957680  -0.006872533
N        0.944156098  -1.557763953  -1.148581288
N       -1.801432300  -0.040507491  -1.129463719
N        0.940673160   1.559578569  -1.145929259
C       -0.483165934   1.578468921   1.089445397
C        1.557520114  -0.370524037   1.083160963
C        2.026846727  -1.970101771  -0.556025664
C        2.322010560  -1.305408727   0.617848335
C       -1.121883444  -1.191310818   1.099076037
C        0.648470534   2.736973864  -0.624209192
C       -0.060649918   2.823277931   0.624442197
C       -2.704962180  -0.816163845  -0.633465822
C       -2.322018723  -1.525774106   0.598336797
H        1.801229561   0.171666420   2.011109717
H        3.191222587  -1.658492065   1.280845847
H        2.729229332  -2.715513758  -0.881016362
H        0.929339570   3.590178525  -1.236671305
H       -0.230993957   3.764876680   1.154155282
H       -1.150073744   1.532129353   1.966363346
H       -2.132864661  -2.798277253   0.952672490
H       -0.811193640  -1.562968125   2.086853151
H       -3.536107054  -0.888930374  -1.352743573
H        0.656719673  -2.147239815  -1.904371641
H        1.212466311   1.647113763  -2.132008596
H       -2.167741357   0.568423516  -1.878937424


     kinetic energy (Ekin) =     0.11083737 Ry
     temperature           =   486.10600572 K 
     Ekin + Etot (const)   =  -243.51935099 Ry
     Message from routine dynamics:
     Total linear momentum <> 0

     Linear momentum :    1.3920594431    0.0396339841    0.0043663620

     Writing output data file x0.save

     second order wave-functions extrapolation
     second order charge density extrapolation

     Check: negative/imaginary core charge=   -0.000002    0.000000

     total cpu time spent up to now is       81.6 secs

     Self-consistent Calculation

     iteration #  1     ecut=    30.00 Ry     beta= 0.30
     Davidson diagonalization with overlap
     ethr =  1.00E-06,  avg # of iterations = 15.0

     total cpu time spent up to now is       83.2 secs

     total energy              =    -243.62722241 Ry
     Harris-Foulkes estimate   =    -243.62839771 Ry
     estimated scf accuracy    <       0.00306125 Ry

     iteration #  2     ecut=    30.00 Ry     beta= 0.30
     Davidson diagonalization with overlap
     ethr =  4.25E-06,  avg # of iterations =  3.0

     total cpu time spent up to now is       84.4 secs

     total energy              =    -243.62758024 Ry
     Harris-Foulkes estimate   =    -243.62774247 Ry
     estimated scf accuracy    <       0.00062115 Ry

     iteration #  3     ecut=    30.00 Ry     beta= 0.30
     Davidson diagonalization with overlap
     ethr =  8.63E-07,  avg # of iterations =  3.0

     total cpu time spent up to now is       85.6 secs

     total energy              =    -243.62769582 Ry
     Harris-Foulkes estimate   =    -243.62772423 Ry
     estimated scf accuracy    <       0.00018208 Ry

     iteration #  4     ecut=    30.00 Ry     beta= 0.30
     Davidson diagonalization with overlap
     ethr =  2.53E-07,  avg # of iterations =  2.0

     total cpu time spent up to now is       86.8 secs

     End of self-consistent calculation

          k = 0.0000 0.0000 0.0000 (  3310 PWs)   bands (ev):

   -18.7960 -18.4084 -17.9467 -14.6604 -14.0625 -13.8782 -11.7835 -10.8514
   -10.6260  -9.2272  -8.5075  -8.4238  -8.2924  -7.7299  -7.4817  -6.4000
    -6.0031  -5.7852  -5.6826  -5.1379  -5.0188  -4.7174  -4.3551  -4.1941
    -4.1525  -3.6765  -3.2663  -2.4851  -2.2679  -2.1228  -1.5724  -1.4599
    -0.9366  -0.2544  -0.1766   0.6223   1.8862   2.5827   2.9721   3.1977
     4.2655   5.1550   5.2900

     the Fermi energy is     1.2566 ev

!    total energy              =    -243.62771632 Ry
     Harris-Foulkes estimate   =    -243.62771627 Ry
     estimated scf accuracy    <       0.00005398 Ry

     convergence has been achieved in   4 iterations

     Forces acting on atoms (cartesian axes, Ry/au):

     atom    1 type  3   force =    -0.02116937    0.07163286   -0.00289221
     atom    2 type  4   force =     0.00776858    0.03089837    0.01081242
     atom    3 type  4   force =     0.02461066    0.04462302    0.00730148
     atom    4 type  4   force =    -0.03183395    0.01066540    0.00430414
     atom    5 type  1   force =    -0.00972466    0.02208015   -0.02018019
     atom    6 type  1   force =    -0.07003421    0.10159861    0.05563271
     atom    7 type  1   force =    -0.01587506    0.02815451    0.00838576
     atom    8 type  1   force =     0.10076428   -0.10938213    0.11518664
     atom    9 type  1   force =     0.06236140    0.07264115    0.00402670
     atom   10 type  1   force =    -0.01089277   -0.02602848   -0.00830236
     atom   11 type  1   force =     0.01209036   -0.03919899   -0.00277694
     atom   12 type  1   force =     0.03672409   -0.04587660   -0.04766238
     atom   13 type  1   force =     0.05045448   -0.16990350    0.00595653
     atom   14 type  2   force =     0.00126585   -0.00714755    0.00048967
     atom   15 type  2   force =    -0.05092246    0.00999428   -0.03967989
     atom   16 type  2   force =    -0.00030305   -0.03393906   -0.02216204
     atom   17 type  2   force =    -0.01347978   -0.02952334    0.01256771
     atom   18 type  2   force =     0.00908558   -0.00516220   -0.00838003
     atom   19 type  2   force =     0.01115817    0.00278641    0.00550397
     atom   20 type  2   force =    -0.09239290    0.11189996   -0.05203994
     atom   21 type  2   force =     0.00146726   -0.01214752   -0.00480405
     atom   22 type  2   force =    -0.00541421   -0.01555429    0.03152941
     atom   23 type  2   force =    -0.02248285    0.00383979   -0.05167154
     atom   24 type  2   force =     0.01193515   -0.01137875    0.00096958
     atom   25 type  2   force =     0.01483940   -0.00557209   -0.00211513

     Total force =     0.389459     Total SCF correction =     0.008443

     Entering Dynamics:    iteration =    10
                           time      =   0.0100 pico-seconds


     Andersen thermostat:    2 collisions

ATOMIC_POSITIONS (angstrom)
Ir      -0.000500670   0.009291798  -0.006248122
N        0.939704732  -1.560581901  -1.152875920
N       -1.800836432  -0.032209024  -1.131371589
N        0.950206158   1.556512620  -1.149402823
C       -0.483142110   1.574419285   1.083215946
C        1.553325338  -0.363452222   1.085055940
C        2.019905809  -1.974159933  -0.552235526
C        2.328000931  -1.319277845   0.623215452
C       -1.114376033  -1.181350935   1.102795116
C        0.642942868   2.729563651  -0.622475291
C       -0.066289872   2.819240148   0.628032480
C       -2.700759506  -0.821729927  -0.640041324
C       -2.318728330  -1.526446167   0.600874529
H        1.793028592   0.168945671   2.008486106
H        3.180073646  -1.660505665   1.300865550
H        2.719482336  -2.726968755  -0.868816838
H        0.916500612   3.585125176  -1.276536497
H       -0.220084564   3.757804132   1.159146835
H       -1.144494854   1.528333281   1.954134779
H       -2.092354442  -2.793989800   0.873889277
H       -0.814827299  -1.559425917   2.081436388
H       -3.525747083  -0.891098283  -1.374123673
H        0.669788949  -2.141757965  -1.905652591
H        1.198421428   1.640457661  -2.126153160
H       -2.164025345   0.577719730  -1.862249535


     kinetic energy (Ekin) =     0.09983550 Ry
     temperature           =   437.85444041 K 
     Ekin + Etot (const)   =  -243.52788082 Ry
     Message from routine dynamics:
     Total linear momentum <> 0

     Linear momentum :   -0.3695289916   -0.0550444209   -0.2103842499

     Writing output data file x0.save

     second order wave-functions extrapolation
     second order charge density extrapolation

     Check: negative/imaginary core charge=   -0.000002    0.000000

     total cpu time spent up to now is       88.8 secs

     Self-consistent Calculation

     iteration #  1     ecut=    30.00 Ry     beta= 0.30
     Davidson diagonalization with overlap
     ethr =  1.00E-06,  avg # of iterations =  5.0

     total cpu time spent up to now is       90.4 secs

     total energy              =    -243.63382799 Ry
     Harris-Foulkes estimate   =    -243.63414473 Ry
     estimated scf accuracy    <       0.00104598 Ry

     iteration #  2     ecut=    30.00 Ry     beta= 0.30
     Davidson diagonalization with overlap
     ethr =  1.45E-06,  avg # of iterations =  1.0

     total cpu time spent up to now is       91.6 secs

     total energy              =    -243.63384603 Ry
     Harris-Foulkes estimate   =    -243.63391210 Ry
     estimated scf accuracy    <       0.00028314 Ry

     iteration #  3     ecut=    30.00 Ry     beta= 0.30
     Davidson diagonalization with overlap
     ethr =  3.93E-07,  avg # of iterations =  3.0

     total cpu time spent up to now is       92.8 secs

     End of self-consistent calculation

          k = 0.0000 0.0000 0.0000 (  3310 PWs)   bands (ev):

   -18.7742 -18.3807 -17.9683 -14.6206 -14.0856 -13.9041 -11.7396 -10.8364
   -10.6372  -9.2285  -8.4981  -8.4540  -8.3328  -7.7102  -7.5150  -6.3818
    -6.0456  -5.8297  -5.6648  -5.1798  -4.9970  -4.7258  -4.3234  -4.1924
    -4.1319  -3.6435  -3.2869  -2.5043  -2.2874  -2.1686  -1.6068  -1.4522
    -0.9655  -0.2953  -0.2059   0.6758   1.8831   2.5702   2.9801   3.2003
     4.2436   5.1743   5.2831

     the Fermi energy is     1.2788 ev

!    total energy              =    -243.63386467 Ry
     Harris-Foulkes estimate   =    -243.63388133 Ry
     estimated scf accuracy    <       0.00007452 Ry

     convergence has been achieved in   3 iterations

     Forces acting on atoms (cartesian axes, Ry/au):

     atom    1 type  3   force =    -0.01787250    0.07422302   -0.00736173
     atom    2 type  4   force =     0.02196107    0.04476458    0.03377268
     atom    3 type  4   force =     0.02675942    0.02696653    0.02773089
     atom    4 type  4   force =    -0.04259865    0.00733783    0.03350559
     atom    5 type  1   force =    -0.00993999    0.01948198   -0.01876565
     atom    6 type  1   force =    -0.04327058    0.05811057    0.03045463
     atom    7 type  1   force =    -0.01353161    0.02566960    0.01025167
     atom    8 type  1   force =     0.05928590   -0.06578312    0.12996243
     atom    9 type  1   force =     0.04072983    0.06675400   -0.00896193
     atom   10 type  1   force =    -0.00035116   -0.00500400   -0.03379246
     atom   11 type  1   force =     0.02085587   -0.03599971   -0.01503879
     atom   12 type  1   force =     0.04207398   -0.03781171   -0.05144925
     atom   13 type  1   force =     0.06279607   -0.16748980   -0.00993516
     atom   14 type  2   force =     0.00478362   -0.00061841    0.00998471
     atom   15 type  2   force =    -0.04456694    0.00522384   -0.04023686
     atom   16 type  2   force =    -0.00046313   -0.03381352   -0.02396378
     atom   17 type  2   force =    -0.02122980   -0.04735914    0.03269297
     atom   18 type  2   force =     0.00684152   -0.00039063   -0.00530119
     atom   19 type  2   force =     0.00456231    0.00105022    0.01362741
     atom   20 type  2   force =    -0.09615990    0.10891202   -0.03899160
     atom   21 type  2   force =     0.00650810   -0.01580353    0.00519473
     atom   22 type  2   force =    -0.00367844   -0.01779428    0.03650153
     atom   23 type  2   force =    -0.02974009   -0.00913069   -0.06885044
     atom   24 type  2   force =     0.01883402   -0.00792714   -0.02233544
     atom   25 type  2   force =     0.00741107    0.00643151   -0.01869495

     Total force =     0.368592     Total SCF correction =     0.010456

     Entering Dynamics:    iteration =    11
                           time      =   0.0110 pico-seconds


     Andersen thermostat:    3 collisions

ATOMIC_POSITIONS (angstrom)
Ir      -0.000702578   0.011874577  -0.005491133
N        0.935925177  -1.561454118  -1.156430301
N       -1.795723177  -0.030981556  -1.128972203
N        0.959267503   1.554729508  -1.152140868
C       -0.483040759   1.571924928   1.076740962
C        1.548519636  -0.354027242   1.087722045
C        2.012968233  -1.976535008  -0.548091557
C        2.335498714  -1.333352863   0.631409064
C       -1.114501969  -1.187720660   1.104860823
C        0.637690791   2.723202952  -0.621297306
C       -0.071216200   2.815611651   0.631454211
C       -2.695404938  -0.826924150  -0.647537449
C       -2.317832653  -1.534436634   0.596482196
H        1.786288891   0.167225451   2.008464265
H        3.158228658  -1.660079523   1.311115137
H        2.709904092  -2.745600708  -0.862378618
H        0.898714617   3.569557961  -1.308205827
H       -0.207206946   3.751788225   1.162974538
H       -1.137509214   1.525948798   1.945405350
H       -2.075249992  -2.761719428   0.785642713
H       -0.816574871  -1.558623976   2.077441403
H       -3.516010439  -0.896496871  -1.386369685
H        0.675814713  -2.137372552  -1.923752498
H        1.189299074   1.633001612  -2.125657895
H       -2.158200804   0.589753192  -1.850024993


     kinetic energy (Ekin) =     0.09885201 Ry
     temperature           =   433.54108658 K 
     Ekin + Etot (const)   =  -243.53501266 Ry
     Message from routine dynamics:
     Total linear momentum <> 0

     Linear momentum :   -0.3128010842   -1.2749852225   -0.1571269218

     Writing output data file x0.save

     second order wave-functions extrapolation
     second order charge density extrapolation

     Check: negative/imaginary core charge=   -0.000002    0.000000

     total cpu time spent up to now is       94.9 secs

     Self-consistent Calculation

     iteration #  1     ecut=    30.00 Ry     beta= 0.30
     Davidson diagonalization with overlap
     ethr =  1.00E-06,  avg # of iterations =  5.0

     total cpu time spent up to now is       96.4 secs

     total energy              =    -243.65009768 Ry
     Harris-Foulkes estimate   =    -243.65167195 Ry
     estimated scf accuracy    <       0.00361394 Ry

     iteration #  2     ecut=    30.00 Ry     beta= 0.30
     Davidson diagonalization with overlap
     ethr =  5.02E-06,  avg # of iterations =  3.0

     total cpu time spent up to now is       97.6 secs

     total energy              =    -243.65076124 Ry
     Harris-Foulkes estimate   =    -243.65126503 Ry
     estimated scf accuracy    <       0.00174596 Ry

     iteration #  3     ecut=    30.00 Ry     beta= 0.30
     Davidson diagonalization with overlap
     ethr =  2.42E-06,  avg # of iterations =  9.0

     total cpu time spent up to now is       98.9 secs

     total energy              =    -243.65097994 Ry
     Harris-Foulkes estimate   =    -243.65101279 Ry
     estimated scf accuracy    <       0.00013517 Ry

     iteration #  4     ecut=    30.00 Ry     beta= 0.30
     Davidson diagonalization with overlap
     ethr =  1.88E-07,  avg # of iterations =  4.0

     total cpu time spent up to now is      100.2 secs

     End of self-consistent calculation

          k = 0.0000 0.0000 0.0000 (  3310 PWs)   bands (ev):

[...]
   -10.6225  -9.0942  -8.5238  -8.3859  -8.2871  -7.9213  -7.6951  -6.4349
    -6.0092  -5.6471  -5.4323  -5.1909  -5.0147  -4.7929  -4.1638  -4.0026
    -3.9532  -3.7437  -3.6834  -2.3659  -2.2270  -2.1253  -1.7713  -1.6314
    -1.2649  -0.3955  -0.2722   0.0803   2.0099   2.4954   3.0082   3.1594
     4.6250   5.0329   5.2664

     the Fermi energy is     1.0147 ev

!    total energy              =    -243.85562180 Ry
     Harris-Foulkes estimate   =    -243.85562364 Ry
     estimated scf accuracy    <       0.00001724 Ry

     convergence has been achieved in   4 iterations

     Forces acting on atoms (cartesian axes, Ry/au):

     atom    1 type  3   force =     0.03482266    0.00472741    0.00879364
     atom    2 type  4   force =    -0.05766971    0.01720276    0.00975885
     atom    3 type  4   force =    -0.01679182   -0.04932886   -0.02317918
     atom    4 type  4   force =     0.00285630    0.01920267   -0.01149578
     atom    5 type  1   force =     0.02889257    0.05170327   -0.04114395
     atom    6 type  1   force =    -0.04914136    0.03181766    0.03436682
     atom    7 type  1   force =    -0.00364233   -0.02627409   -0.02581465
     atom    8 type  1   force =     0.03662466   -0.04650848   -0.06030539
     atom    9 type  1   force =     0.00568282    0.02877722    0.03274566
     atom   10 type  1   force =    -0.04187530   -0.08733051    0.06002381
     atom   11 type  1   force =     0.02528853   -0.06620093   -0.02189210
     atom   12 type  1   force =    -0.02138834   -0.02182165    0.01196106
     atom   13 type  1   force =    -0.02627472    0.00203202   -0.02761177
     atom   14 type  2   force =    -0.01942025    0.01059149   -0.01587621
     atom   15 type  2   force =     0.01689660   -0.00812064    0.02246057
     atom   16 type  2   force =    -0.01801265    0.02502955    0.02730535
     atom   17 type  2   force =     0.00681651    0.06631586   -0.04449075
     atom   18 type  2   force =    -0.01286762    0.02077539    0.02131775
     atom   19 type  2   force =     0.00874816   -0.00912496    0.00265747
     atom   20 type  2   force =     0.04540840    0.01654117    0.00183476
     atom   21 type  2   force =    -0.01688055   -0.00399592   -0.01845665
     atom   22 type  2   force =     0.02962112    0.01735087   -0.01155352
     atom   23 type  2   force =     0.03241765    0.00188913    0.02434870
     atom   24 type  2   force =     0.00672979    0.00461471    0.01840297
     atom   25 type  2   force =     0.00315888    0.00013487    0.02584255

     Total force =     0.260808     Total SCF correction =     0.004335

     Entering Dynamics:    iteration =    98
                           time      =   0.0980 pico-seconds


     Andersen thermostat:    5 collisions

ATOMIC_POSITIONS (angstrom)
Ir       0.003495450   0.043368691   0.025932203
N        1.237416801  -1.338484872  -1.115414522
N       -1.622864345   0.062140799  -1.308168682
N        0.738096205   1.548513237  -1.172328644
C       -0.649840264   1.573250011   1.122810729
C        1.495375773  -0.384784095   1.330119662
C        2.047943297  -1.986037986  -0.305696298
C        2.130318604  -1.536474593   1.046793038
C       -1.089201284  -1.398726241   0.853898095
C        0.452260511   2.749869723  -0.693190270
C       -0.182683608   2.794685482   0.604474045
C       -2.432112725  -0.954888531  -1.033169591
C       -2.180806260  -1.773402122   0.124168112
H        1.760092917   0.013584573   2.351152504
H        2.873607621  -2.015957540   1.664737166
H        2.613763462  -2.885727937  -0.724812243
H        0.522778059   3.565862043  -1.350261484
H       -0.156686273   3.754040785   1.093456672
H       -1.295188827   1.649422244   2.011036341
H       -2.930739549  -2.565431545   0.327077715
H       -0.826137900  -1.788509514   1.856307765
H       -3.361319260  -1.179835682  -1.582494047
H        0.944228933  -1.682409360  -2.030977321
H        0.931097857   1.480330258  -2.218978176
H       -1.772789257   0.521626947  -2.237807093


     kinetic energy (Ekin) =     0.05568413 Ry
     temperature           =   244.21718187 K 
     Ekin + Etot (const)   =  -243.79993766 Ry
     Message from routine dynamics:
     Total linear momentum <> 0

     Linear momentum :    0.3697347242    0.5995942179   -0.1281384074

     Writing output data file x0.save

     second order wave-functions extrapolation
     second order charge density extrapolation

     Check: negative/imaginary core charge=   -0.000002    0.000000

     total cpu time spent up to now is      789.9 secs

     Self-consistent Calculation

     iteration #  1     ecut=    30.00 Ry     beta= 0.30
     Davidson diagonalization with overlap
     ethr =  1.00E-06,  avg # of iterations =  5.0

     total cpu time spent up to now is      791.5 secs

     total energy              =    -243.85314190 Ry
     Harris-Foulkes estimate   =    -243.85391445 Ry
     estimated scf accuracy    <       0.00230495 Ry

     iteration #  2     ecut=    30.00 Ry     beta= 0.30
     Davidson diagonalization with overlap
     ethr =  3.20E-06,  avg # of iterations =  1.0

     total cpu time spent up to now is      792.8 secs

     total energy              =    -243.85328050 Ry
     Harris-Foulkes estimate   =    -243.85338929 Ry
     estimated scf accuracy    <       0.00050208 Ry

     iteration #  3     ecut=    30.00 Ry     beta= 0.30
     Davidson diagonalization with overlap
     ethr =  6.97E-07,  avg # of iterations =  3.0

     total cpu time spent up to now is      794.1 secs

     total energy              =    -243.85334095 Ry
     Harris-Foulkes estimate   =    -243.85337433 Ry
     estimated scf accuracy    <       0.00018446 Ry

     iteration #  4     ecut=    30.00 Ry     beta= 0.30
     Davidson diagonalization with overlap
     ethr =  2.56E-07,  avg # of iterations =  2.0

     total cpu time spent up to now is      795.3 secs

     End of self-consistent calculation

          k = 0.0000 0.0000 0.0000 (  3310 PWs)   bands (ev):

   -18.2776 -17.8905 -17.7523 -14.3688 -13.9523 -13.7248 -11.4935 -10.8579
   -10.6463  -9.1060  -8.4279  -8.3562  -8.2776  -7.9194  -7.6679  -6.3944
    -5.9607  -5.6513  -5.4170  -5.1835  -5.0023  -4.7925  -4.1610  -3.9986
    -3.9431  -3.7330  -3.6902  -2.3903  -2.2243  -2.1242  -1.7479  -1.6467
    -1.2648  -0.4111  -0.2833   0.0729   1.9643   2.4757   2.9797   3.1560
     4.5930   5.0093   5.2393

     the Fermi energy is     0.9999 ev

!    total energy              =    -243.85334616 Ry
     Harris-Foulkes estimate   =    -243.85335999 Ry
     estimated scf accuracy    <       0.00006461 Ry

     convergence has been achieved in   4 iterations

     Forces acting on atoms (cartesian axes, Ry/au):

     atom    1 type  3   force =     0.04057461    0.00557782    0.01005737
     atom    2 type  4   force =    -0.04240265    0.02095820    0.04056176
     atom    3 type  4   force =    -0.02200109   -0.05246103   -0.02361847
     atom    4 type  4   force =     0.00689476    0.03970114   -0.03812739
     atom    5 type  1   force =     0.02591359    0.04853714   -0.04165927
     atom    6 type  1   force =    -0.04670368    0.01695998    0.04158547
     atom    7 type  1   force =    -0.01051527   -0.03587889   -0.04066432
     atom    8 type  1   force =     0.04348429   -0.03353913   -0.04281340
     atom    9 type  1   force =     0.00100232    0.03213489    0.02755426
     atom   10 type  1   force =    -0.03307817   -0.09595305    0.02545265
     atom   11 type  1   force =     0.02987437   -0.03855764   -0.01580468
     atom   12 type  1   force =    -0.00377144   -0.01515726    0.01636804
     atom   13 type  1   force =    -0.02038463    0.01138061   -0.03792693
     atom   14 type  2   force =    -0.01883597    0.00765156   -0.02656573
     atom   15 type  2   force =     0.00753063   -0.00190368    0.01850017
     atom   16 type  2   force =    -0.02427414    0.03691792    0.02972665
     atom   17 type  2   force =     0.00457853    0.04903285   -0.02731282
     atom   18 type  2   force =    -0.01474377    0.00366786    0.01504042
     atom   19 type  2   force =     0.00653647   -0.01210493    0.00745501
     atom   20 type  2   force =     0.04075558    0.01167429    0.00654148
     atom   21 type  2   force =    -0.01541797   -0.00776551   -0.01195751
     atom   22 type  2   force =     0.01922472    0.01641165   -0.01708792
     atom   23 type  2   force =     0.02458281   -0.00720000   -0.00461092
     atom   24 type  2   force =    -0.00181861    0.00689776    0.05564294
     atom   25 type  2   force =     0.00299472   -0.00698256    0.03366315

     Total force =     0.252424     Total SCF correction =     0.008480

     Entering Dynamics:    iteration =    99
                           time      =   0.0990 pico-seconds


     Andersen thermostat:    2 collisions

ATOMIC_POSITIONS (angstrom)
Ir       0.003591656   0.043165388   0.025645178
N        1.235210388  -1.335081570  -1.112367261
N       -1.620179851   0.062606367  -1.315808166
N        0.738536982   1.548076386  -1.176617679
C       -0.650922047   1.574377220   1.121720780
C        1.497613152  -0.379150198   1.333736137
C        2.052793728  -1.983236568  -0.301900611
C        2.125838951  -1.546296920   1.045008578
C       -1.086548659  -1.397319453   0.856037831
C        0.454337763   2.751569547  -0.689997780
C       -0.188356244   2.789845139   0.605946432
C       -2.433140711  -0.955931205  -1.033852297
C       -2.181976079  -1.772552711   0.129494480
H        1.736081342   0.004291302   2.371326067
H        2.880759774  -2.038707829   1.660880304
H        2.608573920  -2.895265923  -0.707538698
H        0.496276945   3.576205469  -1.386325060
H       -0.159510899   3.766399810   1.097026172
H       -1.301967647   1.665545394   2.002164417
H       -2.914706887  -2.564558052   0.313220379
H       -0.825151242  -1.777597029   1.851900678
H       -3.343532430  -1.186474487  -1.587163249
H        0.941136094  -1.686967804  -2.002311892
H        0.938004811   1.483482656  -2.230630697
H       -1.765148372   0.537794714  -2.236454473


     kinetic energy (Ekin) =     0.04828125 Ry
     temperature           =   211.74991187 K 
     Ekin + Etot (const)   =  -243.80506491 Ry
     Message from routine dynamics:
     Total linear momentum <> 0

     Linear momentum :    0.2427668564    0.0472194955   -0.4940754706

     Writing output data file x0.save

     second order wave-functions extrapolation
     second order charge density extrapolation

     Check: negative/imaginary core charge=   -0.000002    0.000000

     total cpu time spent up to now is      797.5 secs

     Self-consistent Calculation

     iteration #  1     ecut=    30.00 Ry     beta= 0.30
     Davidson diagonalization with overlap
     ethr =  1.00E-06,  avg # of iterations =  5.0

     total cpu time spent up to now is      799.0 secs

     total energy              =    -243.85185891 Ry
     Harris-Foulkes estimate   =    -243.85246100 Ry
     estimated scf accuracy    <       0.00144718 Ry

     iteration #  2     ecut=    30.00 Ry     beta= 0.30
     Davidson diagonalization with overlap
     ethr =  2.01E-06,  avg # of iterations = 15.0

     total cpu time spent up to now is      800.4 secs

     total energy              =    -243.85206870 Ry
     Harris-Foulkes estimate   =    -243.85225307 Ry
     estimated scf accuracy    <       0.00063237 Ry

     iteration #  3     ecut=    30.00 Ry     beta= 0.30
     Davidson diagonalization with overlap
     ethr =  8.78E-07,  avg # of iterations =  2.0

     total cpu time spent up to now is      801.7 secs

     End of self-consistent calculation

          k = 0.0000 0.0000 0.0000 (  3310 PWs)   bands (ev):

   -18.2544 -17.8500 -17.6992 -14.3600 -13.9540 -13.7469 -11.5097 -10.8324
   -10.6765  -9.1216  -8.4077  -8.2961  -8.2849  -7.9464  -7.6579  -6.3495
    -5.9483  -5.6719  -5.3975  -5.1837  -4.9792  -4.7917  -4.1762  -3.9762
    -3.9346  -3.7203  -3.6959  -2.4105  -2.2276  -2.1217  -1.7284  -1.6512
    -1.2716  -0.4251  -0.3053   0.0714   1.9265   2.4586   2.9641   3.1586
     4.5708   4.9932   5.2180

     the Fermi energy is     0.9870 ev

!    total energy              =    -243.85213977 Ry
     Harris-Foulkes estimate   =    -243.85216571 Ry
     estimated scf accuracy    <       0.00007239 Ry

     convergence has been achieved in   3 iterations

     Forces acting on atoms (cartesian axes, Ry/au):

     atom    1 type  3   force =     0.04381975    0.00785713    0.01126656
     atom    2 type  4   force =    -0.02271902    0.02531524    0.07291393
     atom    3 type  4   force =    -0.02611277   -0.05999106   -0.01323112
     atom    4 type  4   force =     0.00964028    0.04677265   -0.04392922
     atom    5 type  1   force =     0.02122790    0.04344991   -0.03852420
     atom    6 type  1   force =    -0.04311565   -0.00254507    0.04173283
     atom    7 type  1   force =    -0.02061068   -0.03768591   -0.05064510
     atom    8 type  1   force =     0.05156617   -0.01758673   -0.01970636
     atom    9 type  1   force =    -0.00647472    0.03537389    0.01678551
     atom   10 type  1   force =    -0.03137047   -0.07297463   -0.01346943
     atom   11 type  1   force =     0.03658325   -0.00789153   -0.00952070
     atom   12 type  1   force =     0.01647510   -0.00604202    0.02112024
     atom   13 type  1   force =    -0.00589716    0.02726907   -0.04744587
     atom   14 type  2   force =    -0.01600318    0.00632457   -0.03279483
     atom   15 type  2   force =    -0.00499260    0.00654739    0.01118778
     atom   16 type  2   force =    -0.02473184    0.04013784    0.02659770
     atom   17 type  2   force =     0.00323743    0.01650982    0.00339272
     atom   18 type  2   force =    -0.01569755   -0.01636605    0.00588148
     atom   19 type  2   force =     0.00514605   -0.01446680    0.01037590
     atom   20 type  2   force =     0.02791622   -0.00071499    0.01219645
     atom   21 type  2   force =    -0.01253029   -0.01279926   -0.00161839
     atom   22 type  2   force =     0.00486272    0.01343838   -0.02397534
     atom   23 type  2   force =     0.01431431   -0.01783892   -0.03626001
     atom   24 type  2   force =    -0.00531890    0.00747149    0.06632603
     atom   25 type  2   force =     0.00078566   -0.00956443    0.03134342

     Total force =     0.246767     Total SCF correction =     0.010472

     Entering Dynamics:    iteration =   100
                           time      =   0.1000 pico-seconds


     Andersen thermostat:    2 collisions

ATOMIC_POSITIONS (angstrom)
Ir       0.003748469   0.042748545   0.025210931
N        1.232605635  -1.331453571  -1.108190331
N       -1.622054473   0.058727439  -1.323728254
N        0.739152558   1.548244280  -1.181846540
C       -0.651561307   1.576178222   1.119673338
C        1.498964016  -0.373792549   1.338052855
C        2.057222492  -1.981437243  -0.299312777
C        2.127091032  -1.546538992   1.047294139
C       -1.084025718  -1.395405686   0.858362515
C        0.455771100   2.751538377  -0.687245269
C       -0.193269188   2.784618115   0.607060405
C       -2.433824345  -0.957322358  -1.034260520
C       -2.183263654  -1.771363726   0.133679076
H        1.708131499  -0.003667613   2.383258989
H        2.886686072  -2.060068873   1.659617744
H        2.597295841  -2.895139790  -0.683874677
H        0.470577413   3.590392344  -1.421714615
H       -0.166198500   3.774503445   1.101882791
H       -1.307474705   1.677881027   1.995686793
H       -2.891793121  -2.564084373   0.302205830
H       -0.827247318  -1.770061270   1.846933146
H       -3.324543634  -1.190026481  -1.597900444
H        0.941573582  -1.696144474  -1.982740736
H        0.943605527   1.488251946  -2.226105824
H       -1.757309888   0.551382642  -2.227542286


     kinetic energy (Ekin) =     0.04208274 Ry
     temperature           =   184.56476258 K 
     Ekin + Etot (const)   =  -243.81005702 Ry
     Message from routine dynamics:
     Total linear momentum <> 0

     Linear momentum :   -0.0044826973    0.2473711983    0.1788964029

     The maximum number of steps has been reached.

     End of molecular dynamics calculation

     diffusion coefficients :
     atom     1   D =       0.00000048 cm^2/s
     atom     2   D =       0.00001956 cm^2/s
     atom     3   D =       0.00001398 cm^2/s
     atom     4   D =       0.00000268 cm^2/s
     atom     5   D =       0.00000526 cm^2/s
     atom     6   D =       0.00001430 cm^2/s
     atom     7   D =       0.00001582 cm^2/s
     atom     8   D =       0.00005636 cm^2/s
     atom     9   D =       0.00001366 cm^2/s
     atom    10   D =       0.00000823 cm^2/s
     atom    11   D =       0.00000309 cm^2/s
     atom    12   D =       0.00004816 cm^2/s
     atom    13   D =       0.00006333 cm^2/s
     atom    14   D =       0.00002956 cm^2/s
     atom    15   D =       0.00011324 cm^2/s
     atom    16   D =       0.00003202 cm^2/s
     atom    17   D =       0.00007551 cm^2/s
     atom    18   D =       0.00000096 cm^2/s
     atom    19   D =       0.00001451 cm^2/s
     atom    20   D =       0.00015926 cm^2/s
     atom    21   D =       0.00000607 cm^2/s
     atom    22   D =       0.00007782 cm^2/s
     atom    23   D =       0.00002465 cm^2/s
     atom    24   D =       0.00003996 cm^2/s
     atom    25   D =       0.00002561 cm^2/s

     < D > =       0.00003456 cm^2/s

     Writing output data file x0.save
 
     init_run     :      1.87s CPU      2.00s WALL (       1 calls)
     electrons    :    505.57s CPU    593.96s WALL (     100 calls)
     update_pot   :     52.43s CPU     66.29s WALL (      99 calls)
     forces       :     79.05s CPU     91.94s WALL (     100 calls)

     Called by init_run:
     wfcinit      :      0.16s CPU      0.17s WALL (       1 calls)
     potinit      :      0.28s CPU      0.30s WALL (       1 calls)

     Called by electrons:
     c_bands      :    146.23s CPU    149.44s WALL (     427 calls)
     sum_band     :    158.55s CPU    197.83s WALL (     427 calls)
     v_of_rho     :    115.34s CPU    118.38s WALL (     527 calls)
     newd         :    111.16s CPU    158.26s WALL (     527 calls)
     mix_rho      :      9.58s CPU      9.82s WALL (     427 calls)

     Called by c_bands:
     init_us_2    :      2.30s CPU      2.35s WALL (     953 calls)
     regterg      :    139.55s CPU    142.74s WALL (     427 calls)

     Called by sum_band:
     sum_band:bec :      0.01s CPU      0.01s WALL (     427 calls)
     addusdens    :    119.06s CPU    158.27s WALL (     427 calls)

     Called by *egterg:
     h_psi        :    117.30s CPU    117.53s WALL (    2593 calls)
     s_psi        :      3.49s CPU      3.50s WALL (    2691 calls)
     g_psi        :      0.74s CPU      0.75s WALL (    2165 calls)
     rdiaghg      :      6.09s CPU      6.12s WALL (    2493 calls)

     Called by h_psi:
     h_psi:pot    :    116.69s CPU    116.91s WALL (    2593 calls)
     h_psi:calbec :      4.04s CPU      4.05s WALL (    2593 calls)
     vloc_psi     :    109.34s CPU    109.55s WALL (    2593 calls)
     add_vuspsi   :      3.29s CPU      3.30s WALL (    2593 calls)

     General routines
     calbec       :      6.56s CPU      6.59s WALL (    3616 calls)
     fft          :    113.46s CPU    113.55s WALL (    9231 calls)
     ffts         :      2.89s CPU      2.89s WALL (     954 calls)
     fftw         :    108.22s CPU    108.43s WALL (   68498 calls)
     interpolate  :     15.81s CPU     15.82s WALL (     954 calls)
     davcio       :      0.05s CPU      0.57s WALL (     392 calls)
 
     Parallel routines
 
     PWSCF        : 11m11.00s CPU    13m23.03s WALL

 
   This run was terminated on:  10:57:14  22Jun2021            

=------------------------------------------------------------------------------=
   JOB DONE.
=------------------------------------------------------------------------------=
