#     Step Nr.          Time[fs]        Kin.[a.u.]          Temp[K]            Pot.[a.u.]        Cons Qty[a.u.]        UsedTime[s]
         0            0.000000         0.591402765       300.000000000       -13.635302719       -13.043899954         0.000000000
        10           25.000000         0.588305483       298.428846292       -13.631183564       -13.043992481         0.012800819
        20           50.000000         0.558102617       283.107883225       -13.601689221       -13.044219269         0.012933819
        30           75.000000         0.503311849       255.314251805       -13.549253189       -13.044512420         0.012874838
        40          100.000000         0.447946679       227.229244786       -13.492036507       -13.044817309         0.012902041
        50          125.000000         0.408797684       207.370192271       -13.449530513       -13.045100057         0.012871836
        60          150.000000         0.390678246       198.178772186       -13.428042744       -13.045345740         0.012852934
        70          175.000000         0.385332021       195.466800515       -13.422891280       -13.045561854         0.012801827
        80          200.000000         0.388952747       197.303480581       -13.425286272       -13.045765121         0.012850361
        90          225.000000         0.391196321       198.441575236       -13.429589295       -13.045975678         0.012874088
       100          250.000000         0.396000566       200.878617332       -13.434135351       -13.046209102         0.012850637
       110          275.000000         0.397288776       201.532085478       -13.437632994       -13.046461810         0.012924748
       120          300.000000         0.401217185       203.524844086       -13.440725779       -13.046725400         0.012874616
       130          325.000000         0.402684003       204.268914340       -13.442556351       -13.046983709         0.013939800
       140          350.000000         0.401386890       203.610930145       -13.441703813       -13.047224650         0.012822318
       150          375.000000         0.398392809       202.092126713       -13.438320840       -13.047447367         0.012880166
       160          400.000000         0.395339347       200.543201666       -13.434213415       -13.047652584         0.012844713
       170          425.000000         0.397320319       201.548086419       -13.435182348       -13.047861601         0.012894931
       180          450.000000         0.399439142       202.622898705       -13.436204764       -13.048065391         0.012880346
       190          475.000000         0.395017927       200.380155656       -13.430479924       -13.048238292         0.012831251
       200          500.000000         0.390138625       197.905039342       -13.424127455       -13.048371595         0.012819215
       210          525.000000         0.389112650       197.384594625       -13.422955400       -13.048462670         0.012835004
       220          550.000000         0.390631219       198.154916509       -13.424724277       -13.048509862         0.012907526
       230          575.000000         0.390541417       198.109362799       -13.427287537       -13.048525137         0.012921700
       240          600.000000         0.393960977       199.843997867       -13.431653905       -13.048522714         0.012947869
       250          625.000000         0.398221680       202.005318402       -13.436361385       -13.048504033         0.012862866
       260          650.000000         0.402492718       204.171881865       -13.439980823       -13.048468112         0.012860053
       270          675.000000         0.405454649       205.674376165       -13.443748955       -13.048424397         0.012906924
       280          700.000000         0.411528231       208.755312781       -13.447804245       -13.048381287         0.012820750
       290          725.000000         0.416867769       211.463892162       -13.450431242       -13.048342371         0.012850637
       300          750.000000         0.417964597       212.020278418       -13.451703227       -13.048310621         0.013293991
       310          775.000000         0.419618090       212.859043580       -13.453050565       -13.048281867         0.012837955
       320          800.000000         0.418333111       212.207214033       -13.453088052       -13.048244910         0.012857937
       330          825.000000         0.415607392       210.824542666       -13.448777479       -13.048182199         0.012871938
       340          850.000000         0.410049598       208.005249087       -13.441641766       -13.048089644         0.012852946
       350          875.000000         0.406240999       206.073266455       -13.436355650       -13.047981382         0.012913154
       360          900.000000         0.402858125       204.357241113       -13.433846059       -13.047873710         0.012828618
       370          925.000000         0.399808690       202.810358639       -13.432504136       -13.047778553         0.012820589
       380          950.000000         0.401894317       203.868331637       -13.434509096       -13.047705095         0.012830927
       390          975.000000         0.410232568       208.098063874       -13.441097216       -13.047651550         0.012865432
       400         1000.000000         0.417610387       211.840599271       -13.448620644       -13.047606223         0.012832674
       410         1025.000000         0.424773781       215.474363108       -13.453728544       -13.047567003         0.012827205
       420         1050.000000         0.423636203       214.897306014       -13.453873195       -13.047537565         0.012889841
       430         1075.000000         0.418202763       212.141092881       -13.448906269       -13.047519890         0.012853810
       440         1100.000000         0.412572944       209.285263039       -13.443063345       -13.047513949         0.012904384
       450         1125.000000         0.408307156       207.121363064       -13.439259483       -13.047506453         0.013690677
       460         1150.000000         0.405072130       205.480335950       -13.437682244       -13.047485518         0.012843136
       470         1175.000000         0.404448290       205.163881663       -13.438381881       -13.047454758         0.013039492
       480         1200.000000         0.406001863       205.951960236       -13.440041362       -13.047422522         0.012827474
       490         1225.000000         0.408244388       207.089522780       -13.440746490       -13.047395202         0.012879051
       500         1250.000000         0.408364413       207.150407838       -13.439658613       -13.047372619         0.012846418
       510         1275.000000         0.407561469       206.743099600       -13.437706289       -13.047351430         0.012890126
       520         1300.000000         0.406566004       206.238131246       -13.436528870       -13.047325661         0.012866122
       530         1325.000000         0.409409103       207.680345704       -13.439898111       -13.047300713         0.012876057
       540         1350.000000         0.416680075       211.368680933       -13.447782238       -13.047286337         0.012977780
       550         1375.000000         0.422258578       214.198479817       -13.453681084       -13.047284033         0.012895061
       560         1400.000000         0.422121677       214.129034444       -13.453122123       -13.047300470         0.012833788
       570         1425.000000         0.415651290       210.846810614       -13.446920567       -13.047336714         0.012852639
       580         1450.000000         0.410767335       208.369334424       -13.441205178       -13.047398423         0.012855186
       590         1475.000000         0.411701207       208.843057982       -13.440550761       -13.047492513         0.012873345
       600         1500.000000         0.412299624       209.146616043       -13.443700447       -13.047620407         0.012872955
       610         1525.000000         0.412825787       209.413522021       -13.447018578       -13.047771701         0.012863279
       620         1550.000000         0.417655512       211.863489394       -13.449160185       -13.047934355         0.013290332
       630         1575.000000         0.417533462       211.801577610       -13.451027673       -13.048096761         0.012942418
       640         1600.000000         0.421612010       213.870496260       -13.455049982       -13.048259194         0.013698012
       650         1625.000000         0.427154252       216.681901004       -13.458501948       -13.048420807         0.012871243
       660         1650.000000         0.424239190       215.203181907       -13.453873513       -13.048563799         0.012918569
       670         1675.000000         0.410161464       208.061995095       -13.441418438       -13.048675393         0.012878007
       680         1700.000000         0.398168320       201.978250456       -13.429736143       -13.048748672         0.012952658
       690         1725.000000         0.399230006       202.516810638       -13.426337057       -13.048783218         0.012879510
       700         1750.000000         0.406741809       206.327311479       -13.432258149       -13.048782601         0.012909072
       710         1775.000000         0.415825894       210.935381754       -13.441107886       -13.048749645         0.012908403
       720         1800.000000         0.416912682       211.486675186       -13.442281272       -13.048680814         0.012899964
       730         1825.000000         0.410797956       208.384867335       -13.434962121       -13.048586512         0.012936170
       740         1850.000000         0.405049471       205.468842012       -13.429499290       -13.048490612         0.012910485
       750         1875.000000         0.407172196       206.545633451       -13.431528238       -13.048397415         0.012905290
       760         1900.000000         0.412146245       209.068812027       -13.438159573       -13.048301165         0.012892284
       770         1925.000000         0.419536966       212.817891965       -13.444236853       -13.048199665         0.012867417
       780         1950.000000         0.424137388       215.151541216       -13.447753985       -13.048101570         0.012911208
       790         1975.000000         0.424033674       215.098930402       -13.448304773       -13.048011729         0.012845626
       800         2000.000000         0.422108641       214.122421788       -13.444588262       -13.047916943         0.012890548
       810         2025.000000         0.418430691       212.256713465       -13.439113389       -13.047802275         0.012880013
       820         2050.000000         0.415283362       210.660172431       -13.438028884       -13.047664393         0.012866682
       830         2075.000000         0.417891694       211.983297448       -13.441833864       -13.047507391         0.013731157
       840         2100.000000         0.422240739       214.189430674       -13.445357094       -13.047341398         0.012875048
       850         2125.000000         0.427343987       216.778147921       -13.448492542       -13.047194620         0.012890215
       860         2150.000000         0.433835779       220.071229390       -13.453297045       -13.047094043         0.012886182
       870         2175.000000         0.442635760       224.535182819       -13.457239932       -13.047047302         0.012926639
       880         2200.000000         0.444393604       225.426881462       -13.456723291       -13.047048083         0.012911914
       890         2225.000000         0.441716580       224.068911657       -13.452879249       -13.047087943         0.012899756
       900         2250.000000         0.434913320       220.617832020       -13.447334280       -13.047154872         0.012896245
       910         2275.000000         0.426317572       216.257479993       -13.439323628       -13.047227800         0.012907538
       920         2300.000000         0.417706236       211.889220014       -13.431432004       -13.047295533         0.012911634
       930         2325.000000         0.413962557       209.990169868       -13.425884407       -13.047353354         0.012892058
       940         2350.000000         0.408267799       207.101398363       -13.421648637       -13.047389228         0.012933274
       950         2375.000000         0.410081519       208.021441256       -13.422966752       -13.047410783         0.012917809
       960         2400.000000         0.417110797       211.587173014       -13.430779143       -13.047431318         0.012892332
       970         2425.000000         0.422253692       214.196001369       -13.436412546       -13.047448192         0.012873441
       980         2450.000000         0.419262221       212.678522619       -13.434429935       -13.047461782         0.012857981
       990         2475.000000         0.414597884       210.312451136       -13.428530273       -13.047472005         0.012887759
      1000         2500.000000         0.413877673       209.947110594       -13.426270104       -13.047485795         0.012907918
      1010         2525.000000         0.417272528       211.669213904       -13.428931452       -13.047505239         0.012909629
      1020         2550.000000         0.421221428       213.672366526       -13.433054153       -13.047533393         0.012920481
      1030         2575.000000         0.425398442       215.791233998       -13.436542213       -13.047572783         0.012852427
      1040         2600.000000         0.429901004       218.075241853       -13.439682755       -13.047618726         0.012901084
      1050         2625.000000         0.432235634       219.259526134       -13.442424427       -13.047662127         0.012914647
      1060         2650.000000         0.431611278       218.942810042       -13.441715257       -13.047690366         0.012926791
      1070         2675.000000         0.425242804       215.712284104       -13.436428246       -13.047700960         0.012886805
      1080         2700.000000         0.421609902       213.869426826       -13.430870001       -13.047699499         0.012925336
      1090         2725.000000         0.422494348       214.318078614       -13.430684799       -13.047690000         0.012904095
      1100         2750.000000         0.426883591       216.544603373       -13.435222898       -13.047671577         0.012928785
      1110         2775.000000         0.433079882       219.687786846       -13.438408891       -13.047636141         0.012884145
      1120         2800.000000         0.432760955       219.526005258       -13.438267291       -13.047589063         0.014092536
      1130         2825.000000         0.430281521       218.268266457       -13.435183173       -13.047536008         0.012944033
      1140         2850.000000         0.425253596       215.717758269       -13.429870691       -13.047476297         0.012857771
      1150         2875.000000         0.421308144       213.716354924       -13.426435932       -13.047422393         0.012947644
      1160         2900.000000         0.421446667       213.786623281       -13.425976113       -13.047384117         0.012873651
      1170         2925.000000         0.422576965       214.359987819       -13.425504919       -13.047367969         0.012882951
      1180         2950.000000         0.419895383       212.999705330       -13.423181049       -13.047378404         0.012857480
      1190         2975.000000         0.417579719       211.825042182       -13.420468386       -13.047411153         0.012901416
      1200         3000.000000         0.420248713       213.178938661       -13.420359265       -13.047459066         0.012871387
      1210         3025.000000         0.422861182       214.504162137       -13.422392200       -13.047516375         0.012896486
      1220         3050.000000         0.420138329       213.122944296       -13.421679158       -13.047573626         0.012868349
      1230         3075.000000         0.415470022       210.754859362       -13.417899582       -13.047629696         0.012962058
      1240         3100.000000         0.411638649       208.811324330       -13.413860936       -13.047686690         0.012902279
      1250         3125.000000         0.408699328       207.320299298       -13.410561168       -13.047736252         0.012872114
      1260         3150.000000         0.409054146       207.500287201       -13.410475867       -13.047781847         0.014175002
      1270         3175.000000         0.410957192       208.465642829       -13.413207879       -13.047816847         0.012855742
      1280         3200.000000         0.418467825       212.275550423       -13.419352528       -13.047841742         0.012898279
      1290         3225.000000         0.425604666       215.895844831       -13.427568677       -13.047860554         0.012899598
      1300         3250.000000         0.430981450       218.623318296       -13.431987803       -13.047869736         0.012875717
      1310         3275.000000         0.430754319       218.508101854       -13.429747659       -13.047866985         0.012891191
      1320         3300.000000         0.424356745       215.262813891       -13.423220848       -13.047845567         0.012898256
      1330         3325.000000         0.421040331       213.580501604       -13.421301321       -13.047814751         0.012892011
      1340         3350.000000         0.424557015       215.364404604       -13.426034668       -13.047776135         0.012876773
      1350         3375.000000         0.434290737       220.302015384       -13.433771412       -13.047725746         0.012932868
      1360         3400.000000         0.446610960       226.551676339       -13.443252370       -13.047679473         0.012883671
      1370         3425.000000         0.453241590       229.915186547       -13.448451749       -13.047644796         0.013399257
      1380         3450.000000         0.453412672       230.001970858       -13.447856471       -13.047646208         0.012909843
      1390         3475.000000         0.447117905       226.808833955       -13.442541908       -13.047695910         0.012944184
      1400         3500.000000         0.438860101       222.619909590       -13.432950592       -13.047777769         0.012904809
      1410         3525.000000         0.430708154       218.484683845       -13.423381889       -13.047872325         0.012864195
      1420         3550.000000         0.426920406       216.563278650       -13.419012975       -13.047970139         0.012852629
      1430         3575.000000         0.428487167       217.358047005       -13.419963187       -13.048068762         0.012862088
      1440         3600.000000         0.430477783       218.367823943       -13.421027820       -13.048158074         0.013788444
      1450         3625.000000         0.428037895       217.130145465       -13.418658402       -13.048224992         0.012895748
      1460         3650.000000         0.426645083       216.423615617       -13.415736085       -13.048258840         0.012943287
      1470         3675.000000         0.429283433       217.761967503       -13.418815830       -13.048256543         0.012885690
      1480         3700.000000         0.437126205       221.740358803       -13.428720662       -13.048219650         0.012938759
      1490         3725.000000         0.448795875       227.660014905       -13.440235873       -13.048152538         0.012919387
      1500         3750.000000         0.459014625       232.843665180       -13.449545839       -13.048073116         0.012914930
      1510         3775.000000         0.460649836       233.673156355       -13.453153223       -13.047998580         0.012870306
      1520         3800.000000         0.456195843       231.413786066       -13.447587605       -13.047934176         0.012884028
      1530         3825.000000         0.443569167       225.008670972       -13.435025560       -13.047889781         0.012877024
      1540         3850.000000         0.428735379       217.483957412       -13.422097737       -13.047878254         0.012868928
      1550         3875.000000         0.422613574       214.378558073       -13.415225841       -13.047906697         0.012879763
      1560         3900.000000         0.424271604       215.219624505       -13.416931467       -13.047970375         0.012831587
      1570         3925.000000         0.431678530       218.976924863       -13.422584829       -13.048046335         0.012872726
      1580         3950.000000         0.433281622       219.790123122       -13.424791252       -13.048110907         0.012829877
      1590         3975.000000         0.433329577       219.814449023       -13.423263950       -13.048159725         0.012884183
      1600         4000.000000         0.431816936       219.047133792       -13.422914345       -13.048206595         0.012900119
      1610         4025.000000         0.435186127       220.756218743       -13.424314370       -13.048258968         0.012878507
      1620         4050.000000         0.439187546       222.786012607       -13.426208483       -13.048316887         0.012912313
      1630         4075.000000         0.446019839       226.251819221       -13.430067997       -13.048379303         0.012947774
      1640         4100.000000         0.449335633       227.933817464       -13.434500689       -13.048437241         0.012937544
      1650         4125.000000         0.450167857       228.355978614       -13.433531067       -13.048475418         0.012919911
      1660         4150.000000         0.442798336       224.617652382       -13.426461129       -13.048493295         0.012900332
      1670         4175.000000         0.434832237       220.576701448       -13.418117570       -13.048502794         0.012859307
      1680         4200.000000         0.425151788       215.666114099       -13.411120306       -13.048508945         0.012903710
      1690         4225.000000         0.422333184       214.236325174       -13.407652338       -13.048511803         0.012883527
      1700         4250.000000         0.426002036       216.097418208       -13.410787639       -13.048512531         0.012881870
      1710         4275.000000         0.435473977       220.902235618       -13.419380135       -13.048498795         0.012829294
      1720         4300.000000         0.447646423       227.076934470       -13.428937188       -13.048460088         0.013004018
      1730         4325.000000         0.453341719       229.965978711       -13.434250443       -13.048389757         0.012826914
      1740         4350.000000         0.452960304       229.772498792       -13.433859213       -13.048294201         0.012840405
      1750         4375.000000         0.449606209       228.071072250       -13.431071144       -13.048192127         0.012874487
      1760         4400.000000         0.448954995       227.740731591       -13.429698669       -13.048104837         0.012861749
      1770         4425.000000         0.445938144       226.210378211       -13.428328395       -13.048040757         0.013737556
      1780         4450.000000         0.439324243       222.855354206       -13.422022572       -13.047989660         0.012937673
      1790         4475.000000         0.432363669       219.324474568       -13.412872832       -13.047945430         0.012860749
      1800         4500.000000         0.428635061       217.433069002       -13.409456355       -13.047914222         0.012907674
      1810         4525.000000         0.433777241       220.041535227       -13.414268166       -13.047904720         0.013422177
      1820         4550.000000         0.442076642       224.251559841       -13.422936191       -13.047917736         0.012871655
      1830         4575.000000         0.450813516       228.683501103       -13.433974462       -13.047966385         0.012889227
      1840         4600.000000         0.460276764       233.483908480       -13.442134885       -13.048047972         0.012879934
      1850         4625.000000         0.459242068       232.959040097       -13.441037987       -13.048149374         0.012909375
      1860         4650.000000         0.453600193       230.097094436       -13.434455236       -13.048271636         0.012935272
      1870         4675.000000         0.449410060       227.971572077       -13.428949203       -13.048407261         0.012878892
      1880         4700.000000         0.448675590       227.598998381       -13.426900495       -13.048529534         0.012869901
      1890         4725.000000         0.449401184       227.967069155       -13.430183442       -13.048630489         0.012836524
      1900         4750.000000         0.454531703       230.569620044       -13.433007159       -13.048700166         0.012841927
      1910         4775.000000         0.450900937       228.727846678       -13.427989704       -13.048732908         0.012838962
      1920         4800.000000         0.442411305       224.421323586       -13.416831932       -13.048735777         0.012816376
      1930         4825.000000         0.433320681       219.809936651       -13.408710883       -13.048719424         0.012843291
      1940         4850.000000         0.436837658       221.593988061       -13.410026824       -13.048697370         0.014150576
      1950         4875.000000         0.443591974       225.020240083       -13.415063392       -13.048663595         0.012846822
      1960         4900.000000         0.449149958       227.839630421       -13.418450398       -13.048617810         0.012950855
      1970         4925.000000         0.450833601       228.693689523       -13.420126541       -13.048568158         0.012860865
      1980         4950.000000         0.447239329       226.870428372       -13.417904443       -13.048510326         0.012878226
      1990         4975.000000         0.441875952       224.149756038       -13.411691084       -13.048437230         0.012865207
      2000         5000.000000         0.438983857       222.682687144       -13.409360213       -13.048362216         0.012910155
      2010         5025.000000         0.439591428       222.990889171       -13.412486939       -13.048294394         0.012864213
      2020         5050.000000         0.438670236       222.523597067       -13.413222720       -13.048226927         0.012846665
      2030         5075.000000         0.434776611       220.548484052       -13.408945648       -13.048161902         0.012838578
      2040         5100.000000         0.426913780       216.559917531       -13.401154096       -13.048101375         0.012868300
      2050         5125.000000         0.416866492       211.463244788       -13.389664639       -13.048040066         0.012872598
      2060         5150.000000         0.407528025       206.726134379       -13.378721248       -13.047980048         0.012881800
      2070         5175.000000         0.406411277       206.159643371       -13.377881407       -13.047940291         0.012851840
      2080         5200.000000         0.418432104       212.257430163       -13.387457483       -13.047926238         0.012944657
      2090         5225.000000         0.432231595       219.257477590       -13.400874752       -13.047943010         0.012868058
      2100         5250.000000         0.442479004       224.455665172       -13.411501173       -13.047993924         0.012841953
      2110         5275.000000         0.445517149       225.996820845       -13.414303421       -13.048059261         0.012940872
      2120         5300.000000         0.441001934       223.706394288       -13.410587582       -13.048116475         0.012877802
      2130         5325.000000         0.437361330       221.859630571       -13.404335269       -13.048143179         0.012829140
      2140         5350.000000         0.434401856       220.358382608       -13.399257000       -13.048128499         0.012871403
      2150         5375.000000         0.436097640       221.218600401       -13.400689504       -13.048087794         0.012936559
      2160         5400.000000         0.443155125       224.798640091       -13.408350428       -13.048039793         0.012839466
      2170         5425.000000         0.449747885       228.142939631       -13.415596882       -13.047991399         0.012864480
      2180         5450.000000         0.455051186       230.833137613       -13.419590201       -13.047949089         0.012928791
      2190         5475.000000         0.463074507       234.903115624       -13.422476847       -13.047917125         0.012891927
      2200         5500.000000         0.466151160       236.463804560       -13.425379863       -13.047884085         0.013652411
      2210         5525.000000         0.468755251       237.784778016       -13.429078107       -13.047849988         0.012871503
      2220         5550.000000         0.469621523       238.224210803       -13.430736415       -13.047816396         0.012849055
      2230         5575.000000         0.470847234       238.845975132       -13.429865771       -13.047794943         0.012904796
      2240         5600.000000         0.470090012       238.461860270       -13.431479502       -13.047807651         0.012877115
      2250         5625.000000         0.472542615       239.705988599       -13.435225397       -13.047849511         0.012843109
      2260         5650.000000         0.474651419       240.775718540       -13.437856930       -13.047903886         0.012837413
      2270         5675.000000         0.477112270       242.024030502       -13.438911583       -13.047966443         0.012888042