 DBCSR| CPU Multiplication driver                                           BLAS
 DBCSR| Multrec recursion limit                                              512
 DBCSR| Multiplication stack size                                           1000
 DBCSR| Maximum elements for images                                    UNLIMITED
 DBCSR| Multiplicative factor virtual images                                   1
 DBCSR| Use multiplication densification                                       T
 DBCSR| Multiplication size stacks                                             3
 DBCSR| Use memory pool for CPU allocation                                     F
 DBCSR| Number of 3D layers                                               SINGLE
 DBCSR| Use MPI memory allocation                                              F
 DBCSR| Use RMA algorithm                                                      F
 DBCSR| Use Communication thread                                               T
 DBCSR| Communication thread load                                             87
 DBCSR| MPI: My node id                                                        0
 DBCSR| MPI: Number of nodes                                                  12
 DBCSR| OMP: Current number of threads                                         1
 DBCSR| OMP: Max number of threads                                             1
 DBCSR| Split modifier for TAS multiplication algorithm                  1.0E+00


  **** **** ******  **  PROGRAM STARTED AT               2021-06-17 12:47:20.677
 ***** ** ***  *** **   PROGRAM STARTED ON        cpn-p27-35.compute.cbls.ccr.bu
 **    ****   ******    PROGRAM STARTED BY                                ub2042
 ***** **    ** ** **   PROGRAM PROCESS ID                                 32164
  **** **  *******  **  PROGRAM STARTED IN /user/ub2042/exercises/2_fitting/MM_M
                                           D_workdir/md_settings.006

 CP2K| version string:                    CP2K version 9.0 (Development Version)
 CP2K| source code revision number:                                  git:36754bb
 CP2K| cp2kflags: omp fftw3 parallel mpi3 scalapack spglib mkl libvori libbqb   
 CP2K| is freely available from                            https://www.cp2k.org/
 CP2K| Program compiled at                          Thu Apr 22 21:44:59 EDT 2021
 CP2K| Program compiled on            cpn-k07-07-02.compute.cbls.ccr.buffalo.edu
 CP2K| Program compiled for                                                local
 CP2K| Data directory path                 /util/academic/cp2k/8.1-sse/cp2k/data
 CP2K| Input file name                                        md_settings.006.in

 GLOBAL| Force Environment number                                              1
 GLOBAL| Basis set file name                                           BASIS_SET
 GLOBAL| Potential file name                                           POTENTIAL
 GLOBAL| MM Potential file name                                     MM_POTENTIAL
 GLOBAL| Coordinate file name                                      __STD_INPUT__
 GLOBAL| Method name                                                        CP2K
 GLOBAL| Project name                                                       cp2k
 GLOBAL| Preferred FFT library                                             FFTW3
 GLOBAL| Preferred diagonalization lib.                                       SL
 GLOBAL| Run type                                                             MD
 GLOBAL| All-to-all communication in single precision                          F
 GLOBAL| FFTs using library dependent lengths                                  F
 GLOBAL| Grid backend                                                       AUTO
 GLOBAL| Global print level                                                  LOW
 GLOBAL| MPI I/O enabled                                                       T
 GLOBAL| Total number of message passing processes                            12
 GLOBAL| Number of threads for this process                                    1
 GLOBAL| This output is from process                                           0
 GLOBAL| CPU model name                Intel(R) Xeon(R) CPU E5-2620 v3 @ 2.40GHz
 GLOBAL| CPUID                                                              1000

 MEMORY| system memory details [Kb]
 MEMORY|                        rank 0           min           max       average
 MEMORY| MemTotal            131633840     131633840     131633840     131633840
 MEMORY| MemFree             116192492     116192492     116192492     116192492
 MEMORY| Buffers                  2268          2268          2268          2268
 MEMORY| Cached               10360228      10360228      10360228      10360228
 MEMORY| Slab                   320768        320768        320768        320768
 MEMORY| SReclaimable           246868        246868        246868        246868
 MEMORY| MemLikelyFree       126801856     126801856     126801856     126801856



                      ************* ******** ***********   
                     ************* **********************  
                     ****     **** ****      ***********   
                     ******** ****  *******     ****       
                     *******  ****   *******   ****        
                     ****     ****       ****  ****        
                     ****     **** **********  ****        
                      ****     **** ********    ****       
                     FRONTIERS IN SIMULATION TECHNOLOGY    
                                                           
                        C.J. Mundy, S. Balasubramanian,    
                     Ken Bagchi, J. Hutter, Ari Seitsonen  
                      IFW Kuo, T. Laino, J. VandeVondele   
                                 Version 1.0               

                                                           


 EWALD| Summation is done by:                                               SPME
 EWALD| Alpha parameter [       ANGSTROM^-1]                              0.3500
 EWALD| Real Space Cutoff [          ANGSTROM]                            9.6398
 EWALD| G-space max. Miller index                         62        62        62
 EWALD| Spline interpolation order                                             4

 GENERATE|  Preliminary Number of Bonds generated:                             0
 GENERATE|  Achieved consistency in connectivity generation.
 Charge Checking ::CSCS                                                                              
 Charge Checking ::PBCS                                                                              
 Charge Checking ::BRCS                                                                              
 Charge Checking ::CSBR                                                                              
 Charge Checking ::PBBR                                                                              
 Charge Checking ::BRBR                                                                              
 Charge Checking ::CSPB                                                                              
 Charge Checking ::PBPB                                                                              
 Charge Checking ::BRPB                                                                              
 CHARGE_INFO| Total Charge of the Classical System:                     0.000000
 Matching kinds for MM_RADIUS :: 'CS' with 'BR'
 Matching kinds for MM_RADIUS :: 'CS' with 'CS'
 Matching kinds for MM_RADIUS :: 'CS' with 'PB'
 Matching kinds for MM_RADIUS :: 'BR' with 'BR'
 Matching kinds for MM_RADIUS :: 'BR' with 'CS'
 Matching kinds for MM_RADIUS :: 'BR' with 'PB'
 Matching kinds for MM_RADIUS :: 'PB' with 'BR'
 Matching kinds for MM_RADIUS :: 'PB' with 'CS'
 Matching kinds for MM_RADIUS :: 'PB' with 'PB'
 Total number of particles with a shell ::            0

 FORCEFIELD| WARNING: A non Critical ForceField parameter is missing! CP2K GOES!
 FORCEFIELD| Non critical parameters are:Urey-Bradley,Torsions,Impropers, Opbends and 1-4
 FORCEFIELD| All missing parameters will not contribute to the potential energy!

 FORCEFIELD| Missing Spline_Bond_Env   (  CS,  CS)                              
                                                                                
                                                                                
                                                                                
                                                                                
                                                                                

 SPLINE_INFO| Generating 6 splines for NONBONDED14 interactions 
              Due to 3 different atomic kinds
  ...1  ...2  ...3  ...4  ...5  ...6
 SPLINE_INFO| Number of unique splines computed:            1
 SPLINE_INFO| Done
     TESTING CSCS with BRBR
     TESTING CSCS with CSPB
     TESTING CSCS with CSCS
     FOUND CS CS
     TESTING CSCS with PBPB
     TESTING CSCS with BRCS
     TESTING CSCS with BRPB
     TESTING CSBR with BRBR
     TESTING CSBR with CSPB
     TESTING CSBR with CSCS
     TESTING CSBR with PBPB
     TESTING CSBR with BRCS
     FOUND CS BR
     TESTING CSBR with BRPB
     TESTING CSPB with BRBR
     TESTING CSPB with CSPB
     FOUND CS PB
     TESTING CSPB with CSCS
     TESTING CSPB with PBPB
     TESTING CSPB with BRCS
     TESTING CSPB with BRPB
     TESTING BRBR with BRBR
     FOUND BR BR
     TESTING BRBR with CSPB
     TESTING BRBR with CSCS
     TESTING BRBR with PBPB
     TESTING BRBR with BRCS
     TESTING BRBR with BRPB
     TESTING BRPB with BRBR
     TESTING BRPB with CSPB
     TESTING BRPB with CSCS
     TESTING BRPB with PBPB
     TESTING BRPB with BRCS
     TESTING BRPB with BRPB
     FOUND BR PB
     TESTING PBPB with BRBR
     TESTING PBPB with CSPB
     TESTING PBPB with CSCS
     TESTING PBPB with PBPB
     FOUND PB PB
     TESTING PBPB with BRCS
     TESTING PBPB with BRPB

 SPLINE_INFO| Generating 6 splines for NONBONDED interactions 
              Due to 3 different atomic kinds
  ...1  ...2  ...3  ...4  ...5  ...6
 SPLINE_INFO| Number of unique splines computed:            6
 SPLINE_INFO| Done
       atom            1  Cs charge =   0.40230055499999995     
     Mol Kind Cs1 charge =   0.40230055499999995     
       atom            1  Cs charge =   0.40230055499999995     
     Mol Kind Cs2 charge =   0.40230055499999995     
       atom            1  Cs charge =   0.40230055499999995     
     Mol Kind Cs3 charge =   0.40230055499999995     
       atom            1  Cs charge =   0.40230055499999995     
     Mol Kind Cs4 charge =   0.40230055499999995     
       atom            1  Br charge =  -0.40230055499999995     
     Mol Kind Br5 charge =  -0.40230055499999995     
       atom            1  Br charge =  -0.40230055499999995     
     Mol Kind Br6 charge =  -0.40230055499999995     
       atom            1  Br charge =  -0.40230055499999995     
     Mol Kind Br7 charge =  -0.40230055499999995     
       atom            1  Cs charge =   0.40230055499999995     
     Mol Kind Cs8 charge =   0.40230055499999995     
       atom            1  Cs charge =   0.40230055499999995     
     Mol Kind Cs9 charge =   0.40230055499999995     
       atom            1  Cs charge =   0.40230055499999995     
     Mol Kind Cs10 charge =   0.40230055499999995     
       atom            1  Br charge =  -0.40230055499999995     
     Mol Kind Br11 charge =  -0.40230055499999995     
       atom            1  Cs charge =   0.40230055499999995     
     Mol Kind Cs12 charge =   0.40230055499999995     
       atom            1  Cs charge =   0.40230055499999995     
     Mol Kind Cs13 charge =   0.40230055499999995     
       atom            1  Cs charge =   0.40230055499999995     
     Mol Kind Cs14 charge =   0.40230055499999995     
       atom            1  Cs charge =   0.40230055499999995     
     Mol Kind Cs15 charge =   0.40230055499999995     
       atom            1  Cs charge =   0.40230055499999995     
     Mol Kind Cs16 charge =   0.40230055499999995     
       atom            1  Cs charge =   0.40230055499999995     
     Mol Kind Cs17 charge =   0.40230055499999995     
       atom            1  Cs charge =   0.40230055499999995     
     Mol Kind Cs18 charge =   0.40230055499999995     
       atom            1  Cs charge =   0.40230055499999995     
     Mol Kind Cs19 charge =   0.40230055499999995     
       atom            1  Cs charge =   0.40230055499999995     
     Mol Kind Cs20 charge =   0.40230055499999995     
       atom            1  Cs charge =   0.40230055499999995     
     Mol Kind Cs21 charge =   0.40230055499999995     
       atom            1  Cs charge =   0.40230055499999995     
     Mol Kind Cs22 charge =   0.40230055499999995     
       atom            1  Cs charge =   0.40230055499999995     
     Mol Kind Cs23 charge =   0.40230055499999995     
       atom            1  Br charge =  -0.40230055499999995     
     Mol Kind Br24 charge =  -0.40230055499999995     
       atom            1  Cs charge =   0.40230055499999995     
     Mol Kind Cs25 charge =   0.40230055499999995     
       atom            1  Br charge =  -0.40230055499999995     
     Mol Kind Br26 charge =  -0.40230055499999995     
       atom            1  Cs charge =   0.40230055499999995     
     Mol Kind Cs27 charge =   0.40230055499999995     
       atom            1  Br charge =  -0.40230055499999995     
     Mol Kind Br28 charge =  -0.40230055499999995     
       atom            1  Br charge =  -0.40230055499999995     
     Mol Kind Br29 charge =  -0.40230055499999995     
       atom            1  Cs charge =   0.40230055499999995     
     Mol Kind Cs30 charge =   0.40230055499999995     
       atom            1  Cs charge =   0.40230055499999995     
     Mol Kind Cs31 charge =   0.40230055499999995     
       atom            1  Cs charge =   0.40230055499999995     
     Mol Kind Cs32 charge =   0.40230055499999995     
       atom            1  Cs charge =   0.40230055499999995     
     Mol Kind Cs33 charge =   0.40230055499999995     
       atom            1  Br charge =  -0.40230055499999995     
     Mol Kind Br34 charge =  -0.40230055499999995     
       atom            1  Br charge =  -0.40230055499999995     
     Mol Kind Br35 charge =  -0.40230055499999995     
       atom            1  Cs charge =   0.40230055499999995     
     Mol Kind Cs36 charge =   0.40230055499999995     
       atom            1  Cs charge =   0.40230055499999995     
     Mol Kind Cs37 charge =   0.40230055499999995     
       atom            1  Br charge =  -0.40230055499999995     
     Mol Kind Br38 charge =  -0.40230055499999995     
       atom            1  Cs charge =   0.40230055499999995     
     Mol Kind Cs39 charge =   0.40230055499999995     
       atom            1  Br charge =  -0.40230055499999995     
     Mol Kind Br40 charge =  -0.40230055499999995     
       atom            1  Br charge =  -0.40230055499999995     
     Mol Kind Br41 charge =  -0.40230055499999995     
       atom            1  Cs charge =   0.40230055499999995     
     Mol Kind Cs42 charge =   0.40230055499999995     
       atom            1  Cs charge =   0.40230055499999995     
     Mol Kind Cs43 charge =   0.40230055499999995     
       atom            1  Cs charge =   0.40230055499999995     
     Mol Kind Cs44 charge =   0.40230055499999995     
       atom            1  Cs charge =   0.40230055499999995     
     Mol Kind Cs45 charge =   0.40230055499999995     
       atom            1  Cs charge =   0.40230055499999995     
     Mol Kind Cs46 charge =   0.40230055499999995     
       atom            1  Cs charge =   0.40230055499999995     
     Mol Kind Cs47 charge =   0.40230055499999995     
       atom            1  Cs charge =   0.40230055499999995     
     Mol Kind Cs48 charge =   0.40230055499999995     
       atom            1  Cs charge =   0.40230055499999995     
     Mol Kind Cs49 charge =   0.40230055499999995     
       atom            1  Cs charge =   0.40230055499999995     
     Mol Kind Cs50 charge =   0.40230055499999995     
       atom            1  Cs charge =   0.40230055499999995     
     Mol Kind Cs51 charge =   0.40230055499999995     
       atom            1  Cs charge =   0.40230055499999995     
     Mol Kind Cs52 charge =   0.40230055499999995     
       atom            1  Cs charge =   0.40230055499999995     
     Mol Kind Cs53 charge =   0.40230055499999995     
       atom            1  Cs charge =   0.40230055499999995     
     Mol Kind Cs54 charge =   0.40230055499999995     
       atom            1  Cs charge =   0.40230055499999995     
     Mol Kind Cs55 charge =   0.40230055499999995     
       atom            1  Cs charge =   0.40230055499999995     
     Mol Kind Cs56 charge =   0.40230055499999995     
       atom            1  Cs charge =   0.40230055499999995     
     Mol Kind Cs57 charge =   0.40230055499999995     
       atom            1  Cs charge =   0.40230055499999995     
     Mol Kind Cs58 charge =   0.40230055499999995     
       atom            1  Cs charge =   0.40230055499999995     
     Mol Kind Cs59 charge =   0.40230055499999995     
       atom            1  Cs charge =   0.40230055499999995     
     Mol Kind Cs60 charge =   0.40230055499999995     
       atom            1  Cs charge =   0.40230055499999995     
     Mol Kind Cs61 charge =   0.40230055499999995     
       atom            1  Cs charge =   0.40230055499999995     
     Mol Kind Cs62 charge =   0.40230055499999995     
       atom            1  Cs charge =   0.40230055499999995     
     Mol Kind Cs63 charge =   0.40230055499999995     
       atom            1  Cs charge =   0.40230055499999995     
     Mol Kind Cs64 charge =   0.40230055499999995     
       atom            1  Cs charge =   0.40230055499999995     
     Mol Kind Cs65 charge =   0.40230055499999995     
       atom            1  Cs charge =   0.40230055499999995     
     Mol Kind Cs66 charge =   0.40230055499999995     
       atom            1  Cs charge =   0.40230055499999995     
     Mol Kind Cs67 charge =   0.40230055499999995     
       atom            1  Cs charge =   0.40230055499999995     
     Mol Kind Cs68 charge =   0.40230055499999995     
       atom            1  Cs charge =   0.40230055499999995     
     Mol Kind Cs69 charge =   0.40230055499999995     
       atom            1  Cs charge =   0.40230055499999995     
     Mol Kind Cs70 charge =   0.40230055499999995     
       atom            1  Cs charge =   0.40230055499999995     
     Mol Kind Cs71 charge =   0.40230055499999995     
       atom            1  Cs charge =   0.40230055499999995     
     Mol Kind Cs72 charge =   0.40230055499999995     
       atom            1  Cs charge =   0.40230055499999995     
     Mol Kind Cs73 charge =   0.40230055499999995     
       atom            1  Cs charge =   0.40230055499999995     
     Mol Kind Cs74 charge =   0.40230055499999995     
       atom            1  Cs charge =   0.40230055499999995     
     Mol Kind Cs75 charge =   0.40230055499999995     
       atom            1  Cs charge =   0.40230055499999995     
     Mol Kind Cs76 charge =   0.40230055499999995     
       atom            1  Cs charge =   0.40230055499999995     
     Mol Kind Cs77 charge =   0.40230055499999995     
       atom            1  Cs charge =   0.40230055499999995     
     Mol Kind Cs78 charge =   0.40230055499999995     
       atom            1  Cs charge =   0.40230055499999995     
     Mol Kind Cs79 charge =   0.40230055499999995     
       atom            1  Cs charge =   0.40230055499999995     
     Mol Kind Cs80 charge =   0.40230055499999995     
       atom            1  Cs charge =   0.40230055499999995     
     Mol Kind Cs81 charge =   0.40230055499999995     
       atom            1  Cs charge =   0.40230055499999995     
     Mol Kind Cs82 charge =   0.40230055499999995     
       atom            1  Cs charge =   0.40230055499999995     
     Mol Kind Cs83 charge =   0.40230055499999995     
       atom            1  Cs charge =   0.40230055499999995     
     Mol Kind Cs84 charge =   0.40230055499999995     
       atom            1  Cs charge =   0.40230055499999995     
     Mol Kind Cs85 charge =   0.40230055499999995     
       atom            1  Cs charge =   0.40230055499999995     
     Mol Kind Cs86 charge =   0.40230055499999995     
       atom            1  Cs charge =   0.40230055499999995     
     Mol Kind Cs87 charge =   0.40230055499999995     
       atom            1  Cs charge =   0.40230055499999995     
     Mol Kind Cs88 charge =   0.40230055499999995     
       atom            1  Cs charge =   0.40230055499999995     
     Mol Kind Cs89 charge =   0.40230055499999995     
       atom            1  Cs charge =   0.40230055499999995     
     Mol Kind Cs90 charge =   0.40230055499999995     
       atom            1  Cs charge =   0.40230055499999995     
     Mol Kind Cs91 charge =   0.40230055499999995     
       atom            1  Cs charge =   0.40230055499999995     
     Mol Kind Cs92 charge =   0.40230055499999995     
       atom            1  Cs charge =   0.40230055499999995     
     Mol Kind Cs93 charge =   0.40230055499999995     
       atom            1  Cs charge =   0.40230055499999995     
     Mol Kind Cs94 charge =   0.40230055499999995     
       atom            1  Cs charge =   0.40230055499999995     
     Mol Kind Cs95 charge =   0.40230055499999995     
       atom            1  Cs charge =   0.40230055499999995     
     Mol Kind Cs96 charge =   0.40230055499999995     
       atom            1  Cs charge =   0.40230055499999995     
     Mol Kind Cs97 charge =   0.40230055499999995     
       atom            1  Cs charge =   0.40230055499999995     
     Mol Kind Cs98 charge =   0.40230055499999995     
       atom            1  Cs charge =   0.40230055499999995     
     Mol Kind Cs99 charge =   0.40230055499999995     
       atom            1  Cs charge =   0.40230055499999995     
     Mol Kind Cs100 charge =   0.40230055499999995     
       atom            1  Cs charge =   0.40230055499999995     
     Mol Kind Cs101 charge =   0.40230055499999995     
       atom            1  Cs charge =   0.40230055499999995     
     Mol Kind Cs102 charge =   0.40230055499999995     
       atom            1  Cs charge =   0.40230055499999995     
     Mol Kind Cs103 charge =   0.40230055499999995     
       atom            1  Cs charge =   0.40230055499999995     
     Mol Kind Cs104 charge =   0.40230055499999995     
       atom            1  Cs charge =   0.40230055499999995     
     Mol Kind Cs105 charge =   0.40230055499999995     
       atom            1  Cs charge =   0.40230055499999995     
     Mol Kind Cs106 charge =   0.40230055499999995     
       atom            1  Cs charge =   0.40230055499999995     
     Mol Kind Cs107 charge =   0.40230055499999995     
       atom            1  Cs charge =   0.40230055499999995     
     Mol Kind Cs108 charge =   0.40230055499999995     
       atom            1  Cs charge =   0.40230055499999995     
     Mol Kind Cs109 charge =   0.40230055499999995     
       atom            1  Cs charge =   0.40230055499999995     
     Mol Kind Cs110 charge =   0.40230055499999995     
       atom            1  Cs charge =   0.40230055499999995     
     Mol Kind Cs111 charge =   0.40230055499999995     
       atom            1  Cs charge =   0.40230055499999995     
     Mol Kind Cs112 charge =   0.40230055499999995     
       atom            1  Cs charge =   0.40230055499999995     
     Mol Kind Cs113 charge =   0.40230055499999995     
       atom            1  Cs charge =   0.40230055499999995     
     Mol Kind Cs114 charge =   0.40230055499999995     
       atom            1  Cs charge =   0.40230055499999995     
     Mol Kind Cs115 charge =   0.40230055499999995     
       atom            1  Cs charge =   0.40230055499999995     
     Mol Kind Cs116 charge =   0.40230055499999995     
       atom            1  Cs charge =   0.40230055499999995     
     Mol Kind Cs117 charge =   0.40230055499999995     
       atom            1  Cs charge =   0.40230055499999995     
     Mol Kind Cs118 charge =   0.40230055499999995     
       atom            1  Cs charge =   0.40230055499999995     
     Mol Kind Cs119 charge =   0.40230055499999995     
       atom            1  Cs charge =   0.40230055499999995     
     Mol Kind Cs120 charge =   0.40230055499999995     
       atom            1  Cs charge =   0.40230055499999995     
     Mol Kind Cs121 charge =   0.40230055499999995     
       atom            1  Cs charge =   0.40230055499999995     
     Mol Kind Cs122 charge =   0.40230055499999995     
       atom            1  Cs charge =   0.40230055499999995     
     Mol Kind Cs123 charge =   0.40230055499999995     
       atom            1  Cs charge =   0.40230055499999995     
     Mol Kind Cs124 charge =   0.40230055499999995     
       atom            1  Cs charge =   0.40230055499999995     
     Mol Kind Cs125 charge =   0.40230055499999995     
       atom            1  Pb charge =   0.80460110999999990     
     Mol Kind Pb126 charge =   0.80460110999999990     
       atom            1  Pb charge =   0.80460110999999990     
     Mol Kind Pb127 charge =   0.80460110999999990     
       atom            1  Pb charge =   0.80460110999999990     
     Mol Kind Pb128 charge =   0.80460110999999990     
       atom            1  Pb charge =   0.80460110999999990     
     Mol Kind Pb129 charge =   0.80460110999999990     
       atom            1  Pb charge =   0.80460110999999990     
     Mol Kind Pb130 charge =   0.80460110999999990     
       atom            1  Pb charge =   0.80460110999999990     
     Mol Kind Pb131 charge =   0.80460110999999990     
       atom            1  Pb charge =   0.80460110999999990     
     Mol Kind Pb132 charge =   0.80460110999999990     
       atom            1  Pb charge =   0.80460110999999990     
     Mol Kind Pb133 charge =   0.80460110999999990     
       atom            1  Pb charge =   0.80460110999999990     
     Mol Kind Pb134 charge =   0.80460110999999990     
       atom            1  Pb charge =   0.80460110999999990     
     Mol Kind Pb135 charge =   0.80460110999999990     
       atom            1  Pb charge =   0.80460110999999990     
     Mol Kind Pb136 charge =   0.80460110999999990     
       atom            1  Pb charge =   0.80460110999999990     
     Mol Kind Pb137 charge =   0.80460110999999990     
       atom            1  Pb charge =   0.80460110999999990     
     Mol Kind Pb138 charge =   0.80460110999999990     
       atom            1  Pb charge =   0.80460110999999990     
     Mol Kind Pb139 charge =   0.80460110999999990     
       atom            1  Pb charge =   0.80460110999999990     
     Mol Kind Pb140 charge =   0.80460110999999990     
       atom            1  Pb charge =   0.80460110999999990     
     Mol Kind Pb141 charge =   0.80460110999999990     
       atom            1  Pb charge =   0.80460110999999990     
     Mol Kind Pb142 charge =   0.80460110999999990     
       atom            1  Pb charge =   0.80460110999999990     
     Mol Kind Pb143 charge =   0.80460110999999990     
       atom            1  Pb charge =   0.80460110999999990     
     Mol Kind Pb144 charge =   0.80460110999999990     
       atom            1  Pb charge =   0.80460110999999990     
     Mol Kind Pb145 charge =   0.80460110999999990     
       atom            1  Pb charge =   0.80460110999999990     
     Mol Kind Pb146 charge =   0.80460110999999990     
       atom            1  Pb charge =   0.80460110999999990     
     Mol Kind Pb147 charge =   0.80460110999999990     
       atom            1  Pb charge =   0.80460110999999990     
     Mol Kind Pb148 charge =   0.80460110999999990     
       atom            1  Pb charge =   0.80460110999999990     
     Mol Kind Pb149 charge =   0.80460110999999990     
       atom            1  Pb charge =   0.80460110999999990     
     Mol Kind Pb150 charge =   0.80460110999999990     
       atom            1  Pb charge =   0.80460110999999990     
     Mol Kind Pb151 charge =   0.80460110999999990     
       atom            1  Pb charge =   0.80460110999999990     
     Mol Kind Pb152 charge =   0.80460110999999990     
       atom            1  Pb charge =   0.80460110999999990     
     Mol Kind Pb153 charge =   0.80460110999999990     
       atom            1  Pb charge =   0.80460110999999990     
     Mol Kind Pb154 charge =   0.80460110999999990     
       atom            1  Pb charge =   0.80460110999999990     
     Mol Kind Pb155 charge =   0.80460110999999990     
       atom            1  Pb charge =   0.80460110999999990     
     Mol Kind Pb156 charge =   0.80460110999999990     
       atom            1  Pb charge =   0.80460110999999990     
     Mol Kind Pb157 charge =   0.80460110999999990     
       atom            1  Pb charge =   0.80460110999999990     
     Mol Kind Pb158 charge =   0.80460110999999990     
       atom            1  Pb charge =   0.80460110999999990     
     Mol Kind Pb159 charge =   0.80460110999999990     
       atom            1  Pb charge =   0.80460110999999990     
     Mol Kind Pb160 charge =   0.80460110999999990     
       atom            1  Pb charge =   0.80460110999999990     
     Mol Kind Pb161 charge =   0.80460110999999990     
       atom            1  Pb charge =   0.80460110999999990     
     Mol Kind Pb162 charge =   0.80460110999999990     
       atom            1  Pb charge =   0.80460110999999990     
     Mol Kind Pb163 charge =   0.80460110999999990     
       atom            1  Pb charge =   0.80460110999999990     
     Mol Kind Pb164 charge =   0.80460110999999990     
       atom            1  Pb charge =   0.80460110999999990     
     Mol Kind Pb165 charge =   0.80460110999999990     
       atom            1  Pb charge =   0.80460110999999990     
     Mol Kind Pb166 charge =   0.80460110999999990     
       atom            1  Pb charge =   0.80460110999999990     
     Mol Kind Pb167 charge =   0.80460110999999990     
       atom            1  Pb charge =   0.80460110999999990     
     Mol Kind Pb168 charge =   0.80460110999999990     
       atom            1  Pb charge =   0.80460110999999990     
     Mol Kind Pb169 charge =   0.80460110999999990     
       atom            1  Pb charge =   0.80460110999999990     
     Mol Kind Pb170 charge =   0.80460110999999990     
       atom            1  Pb charge =   0.80460110999999990     
     Mol Kind Pb171 charge =   0.80460110999999990     
       atom            1  Pb charge =   0.80460110999999990     
     Mol Kind Pb172 charge =   0.80460110999999990     
       atom            1  Pb charge =   0.80460110999999990     
     Mol Kind Pb173 charge =   0.80460110999999990     
       atom            1  Pb charge =   0.80460110999999990     
     Mol Kind Pb174 charge =   0.80460110999999990     
       atom            1  Pb charge =   0.80460110999999990     
     Mol Kind Pb175 charge =   0.80460110999999990     
       atom            1  Pb charge =   0.80460110999999990     
     Mol Kind Pb176 charge =   0.80460110999999990     
       atom            1  Pb charge =   0.80460110999999990     
     Mol Kind Pb177 charge =   0.80460110999999990     
       atom            1  Pb charge =   0.80460110999999990     
     Mol Kind Pb178 charge =   0.80460110999999990     
       atom            1  Pb charge =   0.80460110999999990     
     Mol Kind Pb179 charge =   0.80460110999999990     
       atom            1  Pb charge =   0.80460110999999990     
     Mol Kind Pb180 charge =   0.80460110999999990     
       atom            1  Pb charge =   0.80460110999999990     
     Mol Kind Pb181 charge =   0.80460110999999990     
       atom            1  Pb charge =   0.80460110999999990     
     Mol Kind Pb182 charge =   0.80460110999999990     
       atom            1  Pb charge =   0.80460110999999990     
     Mol Kind Pb183 charge =   0.80460110999999990     
       atom            1  Pb charge =   0.80460110999999990     
     Mol Kind Pb184 charge =   0.80460110999999990     
       atom            1  Pb charge =   0.80460110999999990     
     Mol Kind Pb185 charge =   0.80460110999999990     
       atom            1  Pb charge =   0.80460110999999990     
     Mol Kind Pb186 charge =   0.80460110999999990     
       atom            1  Pb charge =   0.80460110999999990     
     Mol Kind Pb187 charge =   0.80460110999999990     
       atom            1  Pb charge =   0.80460110999999990     
     Mol Kind Pb188 charge =   0.80460110999999990     
       atom            1  Pb charge =   0.80460110999999990     
     Mol Kind Pb189 charge =   0.80460110999999990     
       atom            1  Br charge =  -0.40230055499999995     
     Mol Kind Br190 charge =  -0.40230055499999995     
       atom            1  Br charge =  -0.40230055499999995     
     Mol Kind Br191 charge =  -0.40230055499999995     
       atom            1  Br charge =  -0.40230055499999995     
     Mol Kind Br192 charge =  -0.40230055499999995     
       atom            1  Br charge =  -0.40230055499999995     
     Mol Kind Br193 charge =  -0.40230055499999995     
       atom            1  Br charge =  -0.40230055499999995     
     Mol Kind Br194 charge =  -0.40230055499999995     
       atom            1  Br charge =  -0.40230055499999995     
     Mol Kind Br195 charge =  -0.40230055499999995     
       atom            1  Br charge =  -0.40230055499999995     
     Mol Kind Br196 charge =  -0.40230055499999995     
       atom            1  Br charge =  -0.40230055499999995     
     Mol Kind Br197 charge =  -0.40230055499999995     
       atom            1  Br charge =  -0.40230055499999995     
     Mol Kind Br198 charge =  -0.40230055499999995     
       atom            1  Br charge =  -0.40230055499999995     
     Mol Kind Br199 charge =  -0.40230055499999995     
       atom            1  Br charge =  -0.40230055499999995     
     Mol Kind Br200 charge =  -0.40230055499999995     
       atom            1  Br charge =  -0.40230055499999995     
     Mol Kind Br201 charge =  -0.40230055499999995     
       atom            1  Br charge =  -0.40230055499999995     
     Mol Kind Br202 charge =  -0.40230055499999995     
       atom            1  Br charge =  -0.40230055499999995     
     Mol Kind Br203 charge =  -0.40230055499999995     
       atom            1  Br charge =  -0.40230055499999995     
     Mol Kind Br204 charge =  -0.40230055499999995     
       atom            1  Br charge =  -0.40230055499999995     
     Mol Kind Br205 charge =  -0.40230055499999995     
       atom            1  Br charge =  -0.40230055499999995     
     Mol Kind Br206 charge =  -0.40230055499999995     
       atom            1  Br charge =  -0.40230055499999995     
     Mol Kind Br207 charge =  -0.40230055499999995     
       atom            1  Br charge =  -0.40230055499999995     
     Mol Kind Br208 charge =  -0.40230055499999995     
       atom            1  Br charge =  -0.40230055499999995     
     Mol Kind Br209 charge =  -0.40230055499999995     
       atom            1  Br charge =  -0.40230055499999995     
     Mol Kind Br210 charge =  -0.40230055499999995     
       atom            1  Br charge =  -0.40230055499999995     
     Mol Kind Br211 charge =  -0.40230055499999995     
       atom            1  Br charge =  -0.40230055499999995     
     Mol Kind Br212 charge =  -0.40230055499999995     
       atom            1  Br charge =  -0.40230055499999995     
     Mol Kind Br213 charge =  -0.40230055499999995     
       atom            1  Br charge =  -0.40230055499999995     
     Mol Kind Br214 charge =  -0.40230055499999995     
       atom            1  Br charge =  -0.40230055499999995     
     Mol Kind Br215 charge =  -0.40230055499999995     
       atom            1  Br charge =  -0.40230055499999995     
     Mol Kind Br216 charge =  -0.40230055499999995     
       atom            1  Br charge =  -0.40230055499999995     
     Mol Kind Br217 charge =  -0.40230055499999995     
       atom            1  Br charge =  -0.40230055499999995     
     Mol Kind Br218 charge =  -0.40230055499999995     
       atom            1  Br charge =  -0.40230055499999995     
     Mol Kind Br219 charge =  -0.40230055499999995     
       atom            1  Br charge =  -0.40230055499999995     
     Mol Kind Br220 charge =  -0.40230055499999995     
       atom            1  Br charge =  -0.40230055499999995     
     Mol Kind Br221 charge =  -0.40230055499999995     
       atom            1  Br charge =  -0.40230055499999995     
     Mol Kind Br222 charge =  -0.40230055499999995     
       atom            1  Br charge =  -0.40230055499999995     
     Mol Kind Br223 charge =  -0.40230055499999995     
       atom            1  Br charge =  -0.40230055499999995     
     Mol Kind Br224 charge =  -0.40230055499999995     
       atom            1  Br charge =  -0.40230055499999995     
     Mol Kind Br225 charge =  -0.40230055499999995     
       atom            1  Br charge =  -0.40230055499999995     
     Mol Kind Br226 charge =  -0.40230055499999995     
       atom            1  Br charge =  -0.40230055499999995     
     Mol Kind Br227 charge =  -0.40230055499999995     
       atom            1  Br charge =  -0.40230055499999995     
     Mol Kind Br228 charge =  -0.40230055499999995     
       atom            1  Br charge =  -0.40230055499999995     
     Mol Kind Br229 charge =  -0.40230055499999995     
       atom            1  Br charge =  -0.40230055499999995     
     Mol Kind Br230 charge =  -0.40230055499999995     
       atom            1  Br charge =  -0.40230055499999995     
     Mol Kind Br231 charge =  -0.40230055499999995     
       atom            1  Br charge =  -0.40230055499999995     
     Mol Kind Br232 charge =  -0.40230055499999995     
       atom            1  Br charge =  -0.40230055499999995     
     Mol Kind Br233 charge =  -0.40230055499999995     
       atom            1  Br charge =  -0.40230055499999995     
     Mol Kind Br234 charge =  -0.40230055499999995     
       atom            1  Br charge =  -0.40230055499999995     
     Mol Kind Br235 charge =  -0.40230055499999995     
       atom            1  Br charge =  -0.40230055499999995     
     Mol Kind Br236 charge =  -0.40230055499999995     
       atom            1  Br charge =  -0.40230055499999995     
     Mol Kind Br237 charge =  -0.40230055499999995     
       atom            1  Br charge =  -0.40230055499999995     
     Mol Kind Br238 charge =  -0.40230055499999995     
       atom            1  Br charge =  -0.40230055499999995     
     Mol Kind Br239 charge =  -0.40230055499999995     
       atom            1  Br charge =  -0.40230055499999995     
     Mol Kind Br240 charge =  -0.40230055499999995     
       atom            1  Br charge =  -0.40230055499999995     
     Mol Kind Br241 charge =  -0.40230055499999995     
       atom            1  Br charge =  -0.40230055499999995     
     Mol Kind Br242 charge =  -0.40230055499999995     
       atom            1  Br charge =  -0.40230055499999995     
     Mol Kind Br243 charge =  -0.40230055499999995     
       atom            1  Br charge =  -0.40230055499999995     
     Mol Kind Br244 charge =  -0.40230055499999995     
       atom            1  Br charge =  -0.40230055499999995     
     Mol Kind Br245 charge =  -0.40230055499999995     
       atom            1  Br charge =  -0.40230055499999995     
     Mol Kind Br246 charge =  -0.40230055499999995     
       atom            1  Br charge =  -0.40230055499999995     
     Mol Kind Br247 charge =  -0.40230055499999995     
       atom            1  Br charge =  -0.40230055499999995     
     Mol Kind Br248 charge =  -0.40230055499999995     
       atom            1  Br charge =  -0.40230055499999995     
     Mol Kind Br249 charge =  -0.40230055499999995     
       atom            1  Br charge =  -0.40230055499999995     
     Mol Kind Br250 charge =  -0.40230055499999995     
       atom            1  Br charge =  -0.40230055499999995     
     Mol Kind Br251 charge =  -0.40230055499999995     
       atom            1  Br charge =  -0.40230055499999995     
     Mol Kind Br252 charge =  -0.40230055499999995     
       atom            1  Br charge =  -0.40230055499999995     
     Mol Kind Br253 charge =  -0.40230055499999995     
       atom            1  Br charge =  -0.40230055499999995     
     Mol Kind Br254 charge =  -0.40230055499999995     
       atom            1  Br charge =  -0.40230055499999995     
     Mol Kind Br255 charge =  -0.40230055499999995     
       atom            1  Br charge =  -0.40230055499999995     
     Mol Kind Br256 charge =  -0.40230055499999995     
       atom            1  Br charge =  -0.40230055499999995     
     Mol Kind Br257 charge =  -0.40230055499999995     
       atom            1  Br charge =  -0.40230055499999995     
     Mol Kind Br258 charge =  -0.40230055499999995     
       atom            1  Br charge =  -0.40230055499999995     
     Mol Kind Br259 charge =  -0.40230055499999995     
       atom            1  Br charge =  -0.40230055499999995     
     Mol Kind Br260 charge =  -0.40230055499999995     
       atom            1  Br charge =  -0.40230055499999995     
     Mol Kind Br261 charge =  -0.40230055499999995     
       atom            1  Br charge =  -0.40230055499999995     
     Mol Kind Br262 charge =  -0.40230055499999995     
       atom            1  Br charge =  -0.40230055499999995     
     Mol Kind Br263 charge =  -0.40230055499999995     
       atom            1  Br charge =  -0.40230055499999995     
     Mol Kind Br264 charge =  -0.40230055499999995     
       atom            1  Br charge =  -0.40230055499999995     
     Mol Kind Br265 charge =  -0.40230055499999995     
       atom            1  Br charge =  -0.40230055499999995     
     Mol Kind Br266 charge =  -0.40230055499999995     
       atom            1  Br charge =  -0.40230055499999995     
     Mol Kind Br267 charge =  -0.40230055499999995     
       atom            1  Br charge =  -0.40230055499999995     
     Mol Kind Br268 charge =  -0.40230055499999995     
       atom            1  Br charge =  -0.40230055499999995     
     Mol Kind Br269 charge =  -0.40230055499999995     
       atom            1  Br charge =  -0.40230055499999995     
     Mol Kind Br270 charge =  -0.40230055499999995     
       atom            1  Br charge =  -0.40230055499999995     
     Mol Kind Br271 charge =  -0.40230055499999995     
       atom            1  Br charge =  -0.40230055499999995     
     Mol Kind Br272 charge =  -0.40230055499999995     
       atom            1  Br charge =  -0.40230055499999995     
     Mol Kind Br273 charge =  -0.40230055499999995     
       atom            1  Br charge =  -0.40230055499999995     
     Mol Kind Br274 charge =  -0.40230055499999995     
       atom            1  Br charge =  -0.40230055499999995     
     Mol Kind Br275 charge =  -0.40230055499999995     
       atom            1  Br charge =  -0.40230055499999995     
     Mol Kind Br276 charge =  -0.40230055499999995     
       atom            1  Br charge =  -0.40230055499999995     
     Mol Kind Br277 charge =  -0.40230055499999995     
       atom            1  Br charge =  -0.40230055499999995     
     Mol Kind Br278 charge =  -0.40230055499999995     
       atom            1  Br charge =  -0.40230055499999995     
     Mol Kind Br279 charge =  -0.40230055499999995     
       atom            1  Br charge =  -0.40230055499999995     
     Mol Kind Br280 charge =  -0.40230055499999995     
       atom            1  Br charge =  -0.40230055499999995     
     Mol Kind Br281 charge =  -0.40230055499999995     
       atom            1  Br charge =  -0.40230055499999995     
     Mol Kind Br282 charge =  -0.40230055499999995     
       atom            1  Br charge =  -0.40230055499999995     
     Mol Kind Br283 charge =  -0.40230055499999995     
       atom            1  Br charge =  -0.40230055499999995     
     Mol Kind Br284 charge =  -0.40230055499999995     
       atom            1  Br charge =  -0.40230055499999995     
     Mol Kind Br285 charge =  -0.40230055499999995     
       atom            1  Br charge =  -0.40230055499999995     
     Mol Kind Br286 charge =  -0.40230055499999995     
       atom            1  Br charge =  -0.40230055499999995     
     Mol Kind Br287 charge =  -0.40230055499999995     
       atom            1  Br charge =  -0.40230055499999995     
     Mol Kind Br288 charge =  -0.40230055499999995     
       atom            1  Br charge =  -0.40230055499999995     
     Mol Kind Br289 charge =  -0.40230055499999995     
       atom            1  Br charge =  -0.40230055499999995     
     Mol Kind Br290 charge =  -0.40230055499999995     
       atom            1  Br charge =  -0.40230055499999995     
     Mol Kind Br291 charge =  -0.40230055499999995     
       atom            1  Br charge =  -0.40230055499999995     
     Mol Kind Br292 charge =  -0.40230055499999995     
       atom            1  Br charge =  -0.40230055499999995     
     Mol Kind Br293 charge =  -0.40230055499999995     
       atom            1  Br charge =  -0.40230055499999995     
     Mol Kind Br294 charge =  -0.40230055499999995     
       atom            1  Br charge =  -0.40230055499999995     
     Mol Kind Br295 charge =  -0.40230055499999995     
       atom            1  Br charge =  -0.40230055499999995     
     Mol Kind Br296 charge =  -0.40230055499999995     
       atom            1  Br charge =  -0.40230055499999995     
     Mol Kind Br297 charge =  -0.40230055499999995     
       atom            1  Br charge =  -0.40230055499999995     
     Mol Kind Br298 charge =  -0.40230055499999995     
       atom            1  Br charge =  -0.40230055499999995     
     Mol Kind Br299 charge =  -0.40230055499999995     
       atom            1  Br charge =  -0.40230055499999995     
     Mol Kind Br300 charge =  -0.40230055499999995     
       atom            1  Br charge =  -0.40230055499999995     
     Mol Kind Br301 charge =  -0.40230055499999995     
       atom            1  Br charge =  -0.40230055499999995     
     Mol Kind Br302 charge =  -0.40230055499999995     
       atom            1  Br charge =  -0.40230055499999995     
     Mol Kind Br303 charge =  -0.40230055499999995     
       atom            1  Br charge =  -0.40230055499999995     
     Mol Kind Br304 charge =  -0.40230055499999995     
       atom            1  Br charge =  -0.40230055499999995     
     Mol Kind Br305 charge =  -0.40230055499999995     
       atom            1  Br charge =  -0.40230055499999995     
     Mol Kind Br306 charge =  -0.40230055499999995     
       atom            1  Br charge =  -0.40230055499999995     
     Mol Kind Br307 charge =  -0.40230055499999995     
       atom            1  Br charge =  -0.40230055499999995     
     Mol Kind Br308 charge =  -0.40230055499999995     
       atom            1  Br charge =  -0.40230055499999995     
     Mol Kind Br309 charge =  -0.40230055499999995     
       atom            1  Br charge =  -0.40230055499999995     
     Mol Kind Br310 charge =  -0.40230055499999995     
       atom            1  Br charge =  -0.40230055499999995     
     Mol Kind Br311 charge =  -0.40230055499999995     
       atom            1  Br charge =  -0.40230055499999995     
     Mol Kind Br312 charge =  -0.40230055499999995     
       atom            1  Br charge =  -0.40230055499999995     
     Mol Kind Br313 charge =  -0.40230055499999995     
       atom            1  Br charge =  -0.40230055499999995     
     Mol Kind Br314 charge =  -0.40230055499999995     
       atom            1  Br charge =  -0.40230055499999995     
     Mol Kind Br315 charge =  -0.40230055499999995     
       atom            1  Br charge =  -0.40230055499999995     
     Mol Kind Br316 charge =  -0.40230055499999995     
       atom            1  Br charge =  -0.40230055499999995     
     Mol Kind Br317 charge =  -0.40230055499999995     
       atom            1  Br charge =  -0.40230055499999995     
     Mol Kind Br318 charge =  -0.40230055499999995     
       atom            1  Br charge =  -0.40230055499999995     
     Mol Kind Br319 charge =  -0.40230055499999995     
       atom            1  Br charge =  -0.40230055499999995     
     Mol Kind Br320 charge =  -0.40230055499999995     
       atom            1  Br charge =  -0.40230055499999995     
     Mol Kind Br321 charge =  -0.40230055499999995     
       atom            1  Br charge =  -0.40230055499999995     
     Mol Kind Br322 charge =  -0.40230055499999995     
       atom            1  Br charge =  -0.40230055499999995     
     Mol Kind Br323 charge =  -0.40230055499999995     
       atom            1  Br charge =  -0.40230055499999995     
     Mol Kind Br324 charge =  -0.40230055499999995     
       atom            1  Br charge =  -0.40230055499999995     
     Mol Kind Br325 charge =  -0.40230055499999995     
       atom            1  Br charge =  -0.40230055499999995     
     Mol Kind Br326 charge =  -0.40230055499999995     
       atom            1  Br charge =  -0.40230055499999995     
     Mol Kind Br327 charge =  -0.40230055499999995     
       atom            1  Br charge =  -0.40230055499999995     
     Mol Kind Br328 charge =  -0.40230055499999995     
       atom            1  Br charge =  -0.40230055499999995     
     Mol Kind Br329 charge =  -0.40230055499999995     
       atom            1  Br charge =  -0.40230055499999995     
     Mol Kind Br330 charge =  -0.40230055499999995     
       atom            1  Br charge =  -0.40230055499999995     
     Mol Kind Br331 charge =  -0.40230055499999995     
       atom            1  Br charge =  -0.40230055499999995     
     Mol Kind Br332 charge =  -0.40230055499999995     
       atom            1  Br charge =  -0.40230055499999995     
     Mol Kind Br333 charge =  -0.40230055499999995     
       atom            1  Br charge =  -0.40230055499999995     
     Mol Kind Br334 charge =  -0.40230055499999995     
       atom            1  Br charge =  -0.40230055499999995     
     Mol Kind Br335 charge =  -0.40230055499999995     
       atom            1  Br charge =  -0.40230055499999995     
     Mol Kind Br336 charge =  -0.40230055499999995     
       atom            1  Br charge =  -0.40230055499999995     
     Mol Kind Br337 charge =  -0.40230055499999995     
       atom            1  Br charge =  -0.40230055499999995     
     Mol Kind Br338 charge =  -0.40230055499999995     
       atom            1  Br charge =  -0.40230055499999995     
     Mol Kind Br339 charge =  -0.40230055499999995     
       atom            1  Br charge =  -0.40230055499999995     
     Mol Kind Br340 charge =  -0.40230055499999995     
       atom            1  Br charge =  -0.40230055499999995     
     Mol Kind Br341 charge =  -0.40230055499999995     
       atom            1  Br charge =  -0.40230055499999995     
     Mol Kind Br342 charge =  -0.40230055499999995     
       atom            1  Br charge =  -0.40230055499999995     
     Mol Kind Br343 charge =  -0.40230055499999995     
       atom            1  Br charge =  -0.40230055499999995     
     Mol Kind Br344 charge =  -0.40230055499999995     
       atom            1  Br charge =  -0.40230055499999995     
     Mol Kind Br345 charge =  -0.40230055499999995     
       atom            1  Br charge =  -0.40230055499999995     
     Mol Kind Br346 charge =  -0.40230055499999995     
       atom            1  Br charge =  -0.40230055499999995     
     Mol Kind Br347 charge =  -0.40230055499999995     
       atom            1  Br charge =  -0.40230055499999995     
     Mol Kind Br348 charge =  -0.40230055499999995     
       atom            1  Br charge =  -0.40230055499999995     
     Mol Kind Br349 charge =  -0.40230055499999995     
       atom            1  Br charge =  -0.40230055499999995     
     Mol Kind Br350 charge =  -0.40230055499999995     
       atom            1  Br charge =  -0.40230055499999995     
     Mol Kind Br351 charge =  -0.40230055499999995     
       atom            1  Br charge =  -0.40230055499999995     
     Mol Kind Br352 charge =  -0.40230055499999995     
       atom            1  Br charge =  -0.40230055499999995     
     Mol Kind Br353 charge =  -0.40230055499999995     
       atom            1  Br charge =  -0.40230055499999995     
     Mol Kind Br354 charge =  -0.40230055499999995     
       atom            1  Br charge =  -0.40230055499999995     
     Mol Kind Br355 charge =  -0.40230055499999995     
       atom            1  Br charge =  -0.40230055499999995     
     Mol Kind Br356 charge =  -0.40230055499999995     
       atom            1  Br charge =  -0.40230055499999995     
     Mol Kind Br357 charge =  -0.40230055499999995     
       atom            1  Br charge =  -0.40230055499999995     
     Mol Kind Br358 charge =  -0.40230055499999995     
       atom            1  Br charge =  -0.40230055499999995     
     Mol Kind Br359 charge =  -0.40230055499999995     
       atom            1  Br charge =  -0.40230055499999995     
     Mol Kind Br360 charge =  -0.40230055499999995     
       atom            1  Br charge =  -0.40230055499999995     
     Mol Kind Br361 charge =  -0.40230055499999995     
       atom            1  Br charge =  -0.40230055499999995     
     Mol Kind Br362 charge =  -0.40230055499999995     
       atom            1  Br charge =  -0.40230055499999995     
     Mol Kind Br363 charge =  -0.40230055499999995     
       atom            1  Br charge =  -0.40230055499999995     
     Mol Kind Br364 charge =  -0.40230055499999995     
       atom            1  Br charge =  -0.40230055499999995     
     Mol Kind Br365 charge =  -0.40230055499999995     
       atom            1  Br charge =  -0.40230055499999995     
     Mol Kind Br366 charge =  -0.40230055499999995     
       atom            1  Br charge =  -0.40230055499999995     
     Mol Kind Br367 charge =  -0.40230055499999995     
       atom            1  Br charge =  -0.40230055499999995     
     Mol Kind Br368 charge =  -0.40230055499999995     
       atom            1  Br charge =  -0.40230055499999995     
     Mol Kind Br369 charge =  -0.40230055499999995     
       atom            1  Br charge =  -0.40230055499999995     
     Mol Kind Br370 charge =  -0.40230055499999995     
       atom            1  Br charge =  -0.40230055499999995     
     Mol Kind Br371 charge =  -0.40230055499999995     
       atom            1  Br charge =  -0.40230055499999995     
     Mol Kind Br372 charge =  -0.40230055499999995     
       atom            1  Br charge =  -0.40230055499999995     
     Mol Kind Br373 charge =  -0.40230055499999995     
       atom            1  Br charge =  -0.40230055499999995     
     Mol Kind Br374 charge =  -0.40230055499999995     
       atom            1  Br charge =  -0.40230055499999995     
     Mol Kind Br375 charge =  -0.40230055499999995     
       atom            1  Br charge =  -0.40230055499999995     
     Mol Kind Br376 charge =  -0.40230055499999995     
       atom            1  Br charge =  -0.40230055499999995     
     Mol Kind Br377 charge =  -0.40230055499999995     
       atom            1  Br charge =  -0.40230055499999995     
     Mol Kind Br378 charge =  -0.40230055499999995     
       atom            1  Br charge =  -0.40230055499999995     
     Mol Kind Br379 charge =  -0.40230055499999995     
       atom            1  Br charge =  -0.40230055499999995     
     Mol Kind Br380 charge =  -0.40230055499999995     
       atom            1  Br charge =  -0.40230055499999995     
     Mol Kind Br381 charge =  -0.40230055499999995     
       atom            1  Br charge =  -0.40230055499999995     
     Mol Kind Br382 charge =  -0.40230055499999995     
       atom            1  Br charge =  -0.40230055499999995     
     Mol Kind Br383 charge =  -0.40230055499999995     
       atom            1  Br charge =  -0.40230055499999995     
     Mol Kind Br384 charge =  -0.40230055499999995     
       atom            1  Br charge =  -0.40230055499999995     
     Mol Kind Br385 charge =  -0.40230055499999995     
       atom            1  Br charge =  -0.40230055499999995     
     Mol Kind Br386 charge =  -0.40230055499999995     
       atom            1  Br charge =  -0.40230055499999995     
     Mol Kind Br387 charge =  -0.40230055499999995     
       atom            1  Br charge =  -0.40230055499999995     
     Mol Kind Br388 charge =  -0.40230055499999995     
       atom            1  Br charge =  -0.40230055499999995     
     Mol Kind Br389 charge =  -0.40230055499999995     
       atom            1  Br charge =  -0.40230055499999995     
     Mol Kind Br390 charge =  -0.40230055499999995     
       atom            1  Br charge =  -0.40230055499999995     
     Mol Kind Br391 charge =  -0.40230055499999995     
       atom            1  Br charge =  -0.40230055499999995     
     Mol Kind Br392 charge =  -0.40230055499999995     
       atom            1  Br charge =  -0.40230055499999995     
     Mol Kind Br393 charge =  -0.40230055499999995     
       atom            1  Br charge =  -0.40230055499999995     
     Mol Kind Br394 charge =  -0.40230055499999995     
       atom            1  Br charge =  -0.40230055499999995     
     Mol Kind Br395 charge =  -0.40230055499999995     
       atom            1  Br charge =  -0.40230055499999995     
     Mol Kind Br396 charge =  -0.40230055499999995     
       atom            1  Br charge =  -0.40230055499999995     
     Mol Kind Br397 charge =  -0.40230055499999995     
       atom            1  Br charge =  -0.40230055499999995     
     Mol Kind Br398 charge =  -0.40230055499999995     
       atom            1  Br charge =  -0.40230055499999995     
     Mol Kind Br399 charge =  -0.40230055499999995     
       atom            1  Br charge =  -0.40230055499999995     
     Mol Kind Br400 charge =  -0.40230055499999995     
       atom            1  Br charge =  -0.40230055499999995     
     Mol Kind Br401 charge =  -0.40230055499999995     
       atom            1  Br charge =  -0.40230055499999995     
     Mol Kind Br402 charge =  -0.40230055499999995     
       atom            1  Br charge =  -0.40230055499999995     
     Mol Kind Br403 charge =  -0.40230055499999995     
       atom            1  Br charge =  -0.40230055499999995     
     Mol Kind Br404 charge =  -0.40230055499999995     
       atom            1  Br charge =  -0.40230055499999995     
     Mol Kind Br405 charge =  -0.40230055499999995     
       atom            1  Br charge =  -0.40230055499999995     
     Mol Kind Br406 charge =  -0.40230055499999995     
       atom            1  Br charge =  -0.40230055499999995     
     Mol Kind Br407 charge =  -0.40230055499999995     
       atom            1  Br charge =  -0.40230055499999995     
     Mol Kind Br408 charge =  -0.40230055499999995     
       atom            1  Br charge =  -0.40230055499999995     
     Mol Kind Br409 charge =  -0.40230055499999995     
       atom            1  Br charge =  -0.40230055499999995     
     Mol Kind Br410 charge =  -0.40230055499999995     
       atom            1  Br charge =  -0.40230055499999995     
     Mol Kind Br411 charge =  -0.40230055499999995     
       atom            1  Br charge =  -0.40230055499999995     
     Mol Kind Br412 charge =  -0.40230055499999995     
       atom            1  Br charge =  -0.40230055499999995     
     Mol Kind Br413 charge =  -0.40230055499999995     
       atom            1  Br charge =  -0.40230055499999995     
     Mol Kind Br414 charge =  -0.40230055499999995     
       atom            1  Br charge =  -0.40230055499999995     
     Mol Kind Br415 charge =  -0.40230055499999995     
       atom            1  Br charge =  -0.40230055499999995     
     Mol Kind Br416 charge =  -0.40230055499999995     
       atom            1  Cs charge =   0.40230055499999995     
       atom            2  Cs charge =   0.40230055499999995     
       atom            3  Cs charge =   0.40230055499999995     
       atom            4  Cs charge =   0.40230055499999995     
       atom            5  Br charge =  -0.40230055499999995     
       atom            6  Br charge =  -0.40230055499999995     
       atom            7  Br charge =  -0.40230055499999995     
       atom            8  Cs charge =   0.40230055499999995     
       atom            9  Cs charge =   0.40230055499999995     
       atom           10  Cs charge =   0.40230055499999995     
       atom           11  Br charge =  -0.40230055499999995     
       atom           12  Cs charge =   0.40230055499999995     
       atom           13  Cs charge =   0.40230055499999995     
       atom           14  Cs charge =   0.40230055499999995     
       atom           15  Cs charge =   0.40230055499999995     
       atom           16  Cs charge =   0.40230055499999995     
       atom           17  Cs charge =   0.40230055499999995     
       atom           18  Cs charge =   0.40230055499999995     
       atom           19  Cs charge =   0.40230055499999995     
       atom           20  Cs charge =   0.40230055499999995     
       atom           21  Cs charge =   0.40230055499999995     
       atom           22  Cs charge =   0.40230055499999995     
       atom           23  Cs charge =   0.40230055499999995     
       atom           24  Br charge =  -0.40230055499999995     
       atom           25  Cs charge =   0.40230055499999995     
       atom           26  Br charge =  -0.40230055499999995     
       atom           27  Cs charge =   0.40230055499999995     
       atom           28  Br charge =  -0.40230055499999995     
       atom           29  Br charge =  -0.40230055499999995     
       atom           30  Cs charge =   0.40230055499999995     
       atom           31  Cs charge =   0.40230055499999995     
       atom           32  Cs charge =   0.40230055499999995     
       atom           33  Cs charge =   0.40230055499999995     
       atom           34  Br charge =  -0.40230055499999995     
       atom           35  Br charge =  -0.40230055499999995     
       atom           36  Cs charge =   0.40230055499999995     
       atom           37  Cs charge =   0.40230055499999995     
       atom           38  Br charge =  -0.40230055499999995     
       atom           39  Cs charge =   0.40230055499999995     
       atom           40  Br charge =  -0.40230055499999995     
       atom           41  Br charge =  -0.40230055499999995     
       atom           42  Cs charge =   0.40230055499999995     
       atom           43  Cs charge =   0.40230055499999995     
       atom           44  Cs charge =   0.40230055499999995     
       atom           45  Cs charge =   0.40230055499999995     
       atom           46  Cs charge =   0.40230055499999995     
       atom           47  Cs charge =   0.40230055499999995     
       atom           48  Cs charge =   0.40230055499999995     
       atom           49  Cs charge =   0.40230055499999995     
       atom           50  Cs charge =   0.40230055499999995     
       atom           51  Cs charge =   0.40230055499999995     
       atom           52  Cs charge =   0.40230055499999995     
       atom           53  Cs charge =   0.40230055499999995     
       atom           54  Cs charge =   0.40230055499999995     
       atom           55  Cs charge =   0.40230055499999995     
       atom           56  Cs charge =   0.40230055499999995     
       atom           57  Cs charge =   0.40230055499999995     
       atom           58  Cs charge =   0.40230055499999995     
       atom           59  Cs charge =   0.40230055499999995     
       atom           60  Cs charge =   0.40230055499999995     
       atom           61  Cs charge =   0.40230055499999995     
       atom           62  Cs charge =   0.40230055499999995     
       atom           63  Cs charge =   0.40230055499999995     
       atom           64  Cs charge =   0.40230055499999995     
       atom           65  Cs charge =   0.40230055499999995     
       atom           66  Cs charge =   0.40230055499999995     
       atom           67  Cs charge =   0.40230055499999995     
       atom           68  Cs charge =   0.40230055499999995     
       atom           69  Cs charge =   0.40230055499999995     
       atom           70  Cs charge =   0.40230055499999995     
       atom           71  Cs charge =   0.40230055499999995     
       atom           72  Cs charge =   0.40230055499999995     
       atom           73  Cs charge =   0.40230055499999995     
       atom           74  Cs charge =   0.40230055499999995     
       atom           75  Cs charge =   0.40230055499999995     
       atom           76  Cs charge =   0.40230055499999995     
       atom           77  Cs charge =   0.40230055499999995     
       atom           78  Cs charge =   0.40230055499999995     
       atom           79  Cs charge =   0.40230055499999995     
       atom           80  Cs charge =   0.40230055499999995     
       atom           81  Cs charge =   0.40230055499999995     
       atom           82  Cs charge =   0.40230055499999995     
       atom           83  Cs charge =   0.40230055499999995     
       atom           84  Cs charge =   0.40230055499999995     
       atom           85  Cs charge =   0.40230055499999995     
       atom           86  Cs charge =   0.40230055499999995     
       atom           87  Cs charge =   0.40230055499999995     
       atom           88  Cs charge =   0.40230055499999995     
       atom           89  Cs charge =   0.40230055499999995     
       atom           90  Cs charge =   0.40230055499999995     
       atom           91  Cs charge =   0.40230055499999995     
       atom           92  Cs charge =   0.40230055499999995     
       atom           93  Cs charge =   0.40230055499999995     
       atom           94  Cs charge =   0.40230055499999995     
       atom           95  Cs charge =   0.40230055499999995     
       atom           96  Cs charge =   0.40230055499999995     
       atom           97  Cs charge =   0.40230055499999995     
       atom           98  Cs charge =   0.40230055499999995     
       atom           99  Cs charge =   0.40230055499999995     
       atom          100  Cs charge =   0.40230055499999995     
       atom          101  Cs charge =   0.40230055499999995     
       atom          102  Cs charge =   0.40230055499999995     
       atom          103  Cs charge =   0.40230055499999995     
       atom          104  Cs charge =   0.40230055499999995     
       atom          105  Cs charge =   0.40230055499999995     
       atom          106  Cs charge =   0.40230055499999995     
       atom          107  Cs charge =   0.40230055499999995     
       atom          108  Cs charge =   0.40230055499999995     
       atom          109  Cs charge =   0.40230055499999995     
       atom          110  Cs charge =   0.40230055499999995     
       atom          111  Cs charge =   0.40230055499999995     
       atom          112  Cs charge =   0.40230055499999995     
       atom          113  Cs charge =   0.40230055499999995     
       atom          114  Cs charge =   0.40230055499999995     
       atom          115  Cs charge =   0.40230055499999995     
       atom          116  Cs charge =   0.40230055499999995     
       atom          117  Cs charge =   0.40230055499999995     
       atom          118  Cs charge =   0.40230055499999995     
       atom          119  Cs charge =   0.40230055499999995     
       atom          120  Cs charge =   0.40230055499999995     
       atom          121  Cs charge =   0.40230055499999995     
       atom          122  Cs charge =   0.40230055499999995     
       atom          123  Cs charge =   0.40230055499999995     
       atom          124  Cs charge =   0.40230055499999995     
       atom          125  Cs charge =   0.40230055499999995     
       atom          126  Pb charge =   0.80460110999999990     
       atom          127  Pb charge =   0.80460110999999990     
       atom          128  Pb charge =   0.80460110999999990     
       atom          129  Pb charge =   0.80460110999999990     
       atom          130  Pb charge =   0.80460110999999990     
       atom          131  Pb charge =   0.80460110999999990     
       atom          132  Pb charge =   0.80460110999999990     
       atom          133  Pb charge =   0.80460110999999990     
       atom          134  Pb charge =   0.80460110999999990     
       atom          135  Pb charge =   0.80460110999999990     
       atom          136  Pb charge =   0.80460110999999990     
       atom          137  Pb charge =   0.80460110999999990     
       atom          138  Pb charge =   0.80460110999999990     
       atom          139  Pb charge =   0.80460110999999990     
       atom          140  Pb charge =   0.80460110999999990     
       atom          141  Pb charge =   0.80460110999999990     
       atom          142  Pb charge =   0.80460110999999990     
       atom          143  Pb charge =   0.80460110999999990     
       atom          144  Pb charge =   0.80460110999999990     
       atom          145  Pb charge =   0.80460110999999990     
       atom          146  Pb charge =   0.80460110999999990     
       atom          147  Pb charge =   0.80460110999999990     
       atom          148  Pb charge =   0.80460110999999990     
       atom          149  Pb charge =   0.80460110999999990     
       atom          150  Pb charge =   0.80460110999999990     
       atom          151  Pb charge =   0.80460110999999990     
       atom          152  Pb charge =   0.80460110999999990     
       atom          153  Pb charge =   0.80460110999999990     
       atom          154  Pb charge =   0.80460110999999990     
       atom          155  Pb charge =   0.80460110999999990     
       atom          156  Pb charge =   0.80460110999999990     
       atom          157  Pb charge =   0.80460110999999990     
       atom          158  Pb charge =   0.80460110999999990     
       atom          159  Pb charge =   0.80460110999999990     
       atom          160  Pb charge =   0.80460110999999990     
       atom          161  Pb charge =   0.80460110999999990     
       atom          162  Pb charge =   0.80460110999999990     
       atom          163  Pb charge =   0.80460110999999990     
       atom          164  Pb charge =   0.80460110999999990     
       atom          165  Pb charge =   0.80460110999999990     
       atom          166  Pb charge =   0.80460110999999990     
       atom          167  Pb charge =   0.80460110999999990     
       atom          168  Pb charge =   0.80460110999999990     
       atom          169  Pb charge =   0.80460110999999990     
       atom          170  Pb charge =   0.80460110999999990     
       atom          171  Pb charge =   0.80460110999999990     
       atom          172  Pb charge =   0.80460110999999990     
       atom          173  Pb charge =   0.80460110999999990     
       atom          174  Pb charge =   0.80460110999999990     
       atom          175  Pb charge =   0.80460110999999990     
       atom          176  Pb charge =   0.80460110999999990     
       atom          177  Pb charge =   0.80460110999999990     
       atom          178  Pb charge =   0.80460110999999990     
       atom          179  Pb charge =   0.80460110999999990     
       atom          180  Pb charge =   0.80460110999999990     
       atom          181  Pb charge =   0.80460110999999990     
       atom          182  Pb charge =   0.80460110999999990     
       atom          183  Pb charge =   0.80460110999999990     
       atom          184  Pb charge =   0.80460110999999990     
       atom          185  Pb charge =   0.80460110999999990     
       atom          186  Pb charge =   0.80460110999999990     
       atom          187  Pb charge =   0.80460110999999990     
       atom          188  Pb charge =   0.80460110999999990     
       atom          189  Pb charge =   0.80460110999999990     
       atom          190  Br charge =  -0.40230055499999995     
       atom          191  Br charge =  -0.40230055499999995     
       atom          192  Br charge =  -0.40230055499999995     
       atom          193  Br charge =  -0.40230055499999995     
       atom          194  Br charge =  -0.40230055499999995     
       atom          195  Br charge =  -0.40230055499999995     
       atom          196  Br charge =  -0.40230055499999995     
       atom          197  Br charge =  -0.40230055499999995     
       atom          198  Br charge =  -0.40230055499999995     
       atom          199  Br charge =  -0.40230055499999995     
       atom          200  Br charge =  -0.40230055499999995     
       atom          201  Br charge =  -0.40230055499999995     
       atom          202  Br charge =  -0.40230055499999995     
       atom          203  Br charge =  -0.40230055499999995     
       atom          204  Br charge =  -0.40230055499999995     
       atom          205  Br charge =  -0.40230055499999995     
       atom          206  Br charge =  -0.40230055499999995     
       atom          207  Br charge =  -0.40230055499999995     
       atom          208  Br charge =  -0.40230055499999995     
       atom          209  Br charge =  -0.40230055499999995     
       atom          210  Br charge =  -0.40230055499999995     
       atom          211  Br charge =  -0.40230055499999995     
       atom          212  Br charge =  -0.40230055499999995     
       atom          213  Br charge =  -0.40230055499999995     
       atom          214  Br charge =  -0.40230055499999995     
       atom          215  Br charge =  -0.40230055499999995     
       atom          216  Br charge =  -0.40230055499999995     
       atom          217  Br charge =  -0.40230055499999995     
       atom          218  Br charge =  -0.40230055499999995     
       atom          219  Br charge =  -0.40230055499999995     
       atom          220  Br charge =  -0.40230055499999995     
       atom          221  Br charge =  -0.40230055499999995     
       atom          222  Br charge =  -0.40230055499999995     
       atom          223  Br charge =  -0.40230055499999995     
       atom          224  Br charge =  -0.40230055499999995     
       atom          225  Br charge =  -0.40230055499999995     
       atom          226  Br charge =  -0.40230055499999995     
       atom          227  Br charge =  -0.40230055499999995     
       atom          228  Br charge =  -0.40230055499999995     
       atom          229  Br charge =  -0.40230055499999995     
       atom          230  Br charge =  -0.40230055499999995     
       atom          231  Br charge =  -0.40230055499999995     
       atom          232  Br charge =  -0.40230055499999995     
       atom          233  Br charge =  -0.40230055499999995     
       atom          234  Br charge =  -0.40230055499999995     
       atom          235  Br charge =  -0.40230055499999995     
       atom          236  Br charge =  -0.40230055499999995     
       atom          237  Br charge =  -0.40230055499999995     
       atom          238  Br charge =  -0.40230055499999995     
       atom          239  Br charge =  -0.40230055499999995     
       atom          240  Br charge =  -0.40230055499999995     
       atom          241  Br charge =  -0.40230055499999995     
       atom          242  Br charge =  -0.40230055499999995     
       atom          243  Br charge =  -0.40230055499999995     
       atom          244  Br charge =  -0.40230055499999995     
       atom          245  Br charge =  -0.40230055499999995     
       atom          246  Br charge =  -0.40230055499999995     
       atom          247  Br charge =  -0.40230055499999995     
       atom          248  Br charge =  -0.40230055499999995     
       atom          249  Br charge =  -0.40230055499999995     
       atom          250  Br charge =  -0.40230055499999995     
       atom          251  Br charge =  -0.40230055499999995     
       atom          252  Br charge =  -0.40230055499999995     
       atom          253  Br charge =  -0.40230055499999995     
       atom          254  Br charge =  -0.40230055499999995     
       atom          255  Br charge =  -0.40230055499999995     
       atom          256  Br charge =  -0.40230055499999995     
       atom          257  Br charge =  -0.40230055499999995     
       atom          258  Br charge =  -0.40230055499999995     
       atom          259  Br charge =  -0.40230055499999995     
       atom          260  Br charge =  -0.40230055499999995     
       atom          261  Br charge =  -0.40230055499999995     
       atom          262  Br charge =  -0.40230055499999995     
       atom          263  Br charge =  -0.40230055499999995     
       atom          264  Br charge =  -0.40230055499999995     
       atom          265  Br charge =  -0.40230055499999995     
       atom          266  Br charge =  -0.40230055499999995     
       atom          267  Br charge =  -0.40230055499999995     
       atom          268  Br charge =  -0.40230055499999995     
       atom          269  Br charge =  -0.40230055499999995     
       atom          270  Br charge =  -0.40230055499999995     
       atom          271  Br charge =  -0.40230055499999995     
       atom          272  Br charge =  -0.40230055499999995     
       atom          273  Br charge =  -0.40230055499999995     
       atom          274  Br charge =  -0.40230055499999995     
       atom          275  Br charge =  -0.40230055499999995     
       atom          276  Br charge =  -0.40230055499999995     
       atom          277  Br charge =  -0.40230055499999995     
       atom          278  Br charge =  -0.40230055499999995     
       atom          279  Br charge =  -0.40230055499999995     
       atom          280  Br charge =  -0.40230055499999995     
       atom          281  Br charge =  -0.40230055499999995     
       atom          282  Br charge =  -0.40230055499999995     
       atom          283  Br charge =  -0.40230055499999995     
       atom          284  Br charge =  -0.40230055499999995     
       atom          285  Br charge =  -0.40230055499999995     
       atom          286  Br charge =  -0.40230055499999995     
       atom          287  Br charge =  -0.40230055499999995     
       atom          288  Br charge =  -0.40230055499999995     
       atom          289  Br charge =  -0.40230055499999995     
       atom          290  Br charge =  -0.40230055499999995     
       atom          291  Br charge =  -0.40230055499999995     
       atom          292  Br charge =  -0.40230055499999995     
       atom          293  Br charge =  -0.40230055499999995     
       atom          294  Br charge =  -0.40230055499999995     
       atom          295  Br charge =  -0.40230055499999995     
       atom          296  Br charge =  -0.40230055499999995     
       atom          297  Br charge =  -0.40230055499999995     
       atom          298  Br charge =  -0.40230055499999995     
       atom          299  Br charge =  -0.40230055499999995     
       atom          300  Br charge =  -0.40230055499999995     
[...]
 MD| CPU time per MD step [s]                      0.012895             0.017456
 MD| Energy drift per atom [K]          -0.401646747425E+01  -0.310088793337E+01
 MD| Potential energy [hartree]         -0.134194621418E+02  -0.134279790259E+02
 MD| Kinetic energy [hartree]            0.472244920180E+00   0.431244489321E+00
 MD| Temperature [K]                             239.554977           218.756750
 MD| ***************************************************************************

 ENERGY| Total FORCE_EVAL ( FIST ) energy [a.u.]:            -13.419881825350334

 MD| ***************************************************************************
 MD| Step number                                                            2767
 MD| Time [fs]                                                       6917.500000
 MD| Conserved quantity [hartree]                            -0.130491935217E+02
 MD| ---------------------------------------------------------------------------
 MD|                                          Instantaneous             Averages
 MD| CPU time per MD step [s]                      0.012878             0.017455
 MD| Energy drift per atom [K]          -0.401820801320E+01  -0.310121945490E+01
 MD| Potential energy [hartree]         -0.134198818254E+02  -0.134279760996E+02
 MD| Kinetic energy [hartree]            0.472910515787E+00   0.431259547517E+00
 MD| Temperature [K]                             239.892613           218.764388
 MD| ***************************************************************************

 ENERGY| Total FORCE_EVAL ( FIST ) energy [a.u.]:            -13.420286178621376

 MD| ***************************************************************************
 MD| Step number                                                            2768
 MD| Time [fs]                                                       6920.000000
 MD| Conserved quantity [hartree]                            -0.130491959908E+02
 MD| ---------------------------------------------------------------------------
 MD|                                          Instantaneous             Averages
 MD| CPU time per MD step [s]                      0.012884             0.017453
 MD| Energy drift per atom [K]          -0.402008225262E+01  -0.310155141401E+01
 MD| Potential energy [hartree]         -0.134202861786E+02  -0.134279733214E+02
 MD| Kinetic energy [hartree]            0.472954886940E+00   0.431274610862E+00
 MD| Temperature [K]                             239.915121           218.772030
 MD| ***************************************************************************

 ENERGY| Total FORCE_EVAL ( FIST ) energy [a.u.]:            -13.420675757699181

 MD| ***************************************************************************
 MD| Step number                                                            2769
 MD| Time [fs]                                                       6922.500000
 MD| Conserved quantity [hartree]                            -0.130491986989E+02
 MD| ---------------------------------------------------------------------------
 MD|                                          Instantaneous             Averages
 MD| CPU time per MD step [s]                      0.012959             0.017451
 MD| Energy drift per atom [K]          -0.402213788676E+01  -0.310188387572E+01
 MD| Potential energy [hartree]         -0.134206757577E+02  -0.134279706860E+02
 MD| Kinetic energy [hartree]            0.473993506461E+00   0.431290038415E+00
 MD| Temperature [K]                             240.441980           218.779855
 MD| ***************************************************************************

 ENERGY| Total FORCE_EVAL ( FIST ) energy [a.u.]:            -13.421050019049405

 MD| ***************************************************************************
 MD| Step number                                                            2770
 MD| Time [fs]                                                       6925.000000
 MD| Conserved quantity [hartree]                            -0.130492014712E+02
 MD| ---------------------------------------------------------------------------
 MD|                                          Instantaneous             Averages
 MD| CPU time per MD step [s]                      0.012901             0.017450
 MD| Energy drift per atom [K]          -0.402424231187E+01  -0.310221685710E+01
 MD| Potential energy [hartree]         -0.134210500190E+02  -0.134279681876E+02
 MD| Kinetic energy [hartree]            0.474313964427E+00   0.431305570519E+00
 MD| Temperature [K]                             240.604538           218.787734
 MD| ***************************************************************************

 ENERGY| Total FORCE_EVAL ( FIST ) energy [a.u.]:            -13.421408074157394

 MD| ***************************************************************************
 MD| Step number                                                            2771
 MD| Time [fs]                                                       6927.500000
 MD| Conserved quantity [hartree]                            -0.130492043522E+02
 MD| ---------------------------------------------------------------------------
 MD|                                          Instantaneous             Averages
 MD| CPU time per MD step [s]                      0.048177             0.017461
 MD| Energy drift per atom [K]          -0.402642915257E+01  -0.310255038734E+01
 MD| Potential energy [hartree]         -0.134214080742E+02  -0.134279658201E+02
 MD| Kinetic energy [hartree]            0.475457958803E+00   0.431321504257E+00
 MD| Temperature [K]                             241.184851           218.795817
 MD| ***************************************************************************

 ENERGY| Total FORCE_EVAL ( FIST ) energy [a.u.]:            -13.421749168350336

 MD| ***************************************************************************
 MD| Step number                                                            2772
 MD| Time [fs]                                                       6930.000000
 MD| Conserved quantity [hartree]                            -0.130492074008E+02
 MD| ---------------------------------------------------------------------------
 MD|                                          Instantaneous             Averages
 MD| CPU time per MD step [s]                      0.012865             0.017459
 MD| Energy drift per atom [K]          -0.402874331189E+01  -0.310288451177E+01
 MD| Potential energy [hartree]         -0.134217491684E+02  -0.134279635775E+02
 MD| Kinetic energy [hartree]            0.476060422709E+00   0.431337643838E+00
 MD| Temperature [K]                             241.490462           218.804004
 MD| ***************************************************************************

 ENERGY| Total FORCE_EVAL ( FIST ) energy [a.u.]:            -13.422072344369406

 MD| ***************************************************************************
 MD| Step number                                                            2773
 MD| Time [fs]                                                       6932.500000
 MD| Conserved quantity [hartree]                            -0.130492105688E+02
 MD| ---------------------------------------------------------------------------
 MD|                                          Instantaneous             Averages
 MD| CPU time per MD step [s]                      0.081080             0.017482
 MD| Energy drift per atom [K]          -0.403114801598E+01  -0.310321926240E+01
 MD| Potential energy [hartree]         -0.134220723444E+02  -0.134279614530E+02
 MD| Kinetic energy [hartree]            0.476737793493E+00   0.431354016052E+00
 MD| Temperature [K]                             241.834070           218.812309
 MD| ***************************************************************************

 ENERGY| Total FORCE_EVAL ( FIST ) energy [a.u.]:            -13.422376992590049

 MD| ***************************************************************************
 MD| Step number                                                            2774
 MD| Time [fs]                                                       6935.000000
 MD| Conserved quantity [hartree]                            -0.130492139296E+02
 MD| ---------------------------------------------------------------------------
 MD|                                          Instantaneous             Averages
 MD| CPU time per MD step [s]                      0.012942             0.017481
 MD| Energy drift per atom [K]          -0.403369914094E+01  -0.310355469134E+01
 MD| Potential energy [hartree]         -0.134223769926E+02  -0.134279594398E+02
 MD| Kinetic energy [hartree]            0.477001702911E+00   0.431370471598E+00
 MD| Temperature [K]                             241.967943           218.820657
 MD| ***************************************************************************

 ENERGY| Total FORCE_EVAL ( FIST ) energy [a.u.]:            -13.422661893652238

 MD| ***************************************************************************
 MD| Step number                                                            2775
 MD| Time [fs]                                                       6937.500000
 MD| Conserved quantity [hartree]                            -0.130492173369E+02
 MD| ---------------------------------------------------------------------------
 MD|                                          Instantaneous             Averages
 MD| CPU time per MD step [s]                      0.012869             0.017479
 MD| Energy drift per atom [K]          -0.403628549139E+01  -0.310389081055E+01
 MD| Potential energy [hartree]         -0.134226618937E+02  -0.134279575308E+02
 MD| Kinetic energy [hartree]            0.477390832593E+00   0.431387055512E+00
 MD| Temperature [K]                             242.165337           218.829069
 MD| ***************************************************************************

 ENERGY| Total FORCE_EVAL ( FIST ) energy [a.u.]:            -13.422925896741811

 MD| ***************************************************************************
 MD| Step number                                                            2776
 MD| Time [fs]                                                       6940.000000
 MD| Conserved quantity [hartree]                            -0.130492207957E+02
 MD| ---------------------------------------------------------------------------
 MD|                                          Instantaneous             Averages
 MD| CPU time per MD step [s]                      0.012872             0.017477
 MD| Energy drift per atom [K]          -0.403891102487E+01  -0.310422763340E+01
 MD| Potential energy [hartree]         -0.134229258967E+02  -0.134279557183E+02
 MD| Kinetic energy [hartree]            0.477504277958E+00   0.431403668345E+00
 MD| Temperature [K]                             242.222884           218.837496
 MD| ***************************************************************************

 ENERGY| Total FORCE_EVAL ( FIST ) energy [a.u.]:            -13.423168648187625

 MD| ***************************************************************************
 MD| Step number                                                            2777
 MD| Time [fs]                                                       6942.500000
 MD| Conserved quantity [hartree]                            -0.130492245688E+02
 MD| ---------------------------------------------------------------------------
 MD|                                          Instantaneous             Averages
 MD| CPU time per MD step [s]                      0.012847             0.017476
 MD| Energy drift per atom [K]          -0.404177509241E+01  -0.310456524501E+01
 MD| Potential energy [hartree]         -0.134231686482E+02  -0.134279539944E+02
 MD| Kinetic energy [hartree]            0.477875994044E+00   0.431420403068E+00
 MD| Temperature [K]                             242.411444           218.845985
 MD| ***************************************************************************

 ENERGY| Total FORCE_EVAL ( FIST ) energy [a.u.]:            -13.423388894187303

 MD| ***************************************************************************
 MD| Step number                                                            2778
 MD| Time [fs]                                                       6945.000000
 MD| Conserved quantity [hartree]                            -0.130492280341E+02
 MD| ---------------------------------------------------------------------------
 MD|                                          Instantaneous             Averages
 MD| CPU time per MD step [s]                      0.013739             0.017474
 MD| Energy drift per atom [K]          -0.404440547927E+01  -0.310490356043E+01
 MD| Potential energy [hartree]         -0.134233888942E+02  -0.134279523511E+02
 MD| Kinetic energy [hartree]            0.477690648525E+00   0.431437059024E+00
 MD| Temperature [K]                             242.317424           218.854434
 MD| ***************************************************************************

 ENERGY| Total FORCE_EVAL ( FIST ) energy [a.u.]:            -13.423586138386094

 MD| ***************************************************************************
 MD| Step number                                                            2779
 MD| Time [fs]                                                       6947.500000
 MD| Conserved quantity [hartree]                            -0.130492316806E+02
 MD| ---------------------------------------------------------------------------
 MD|                                          Instantaneous             Averages
 MD| CPU time per MD step [s]                      0.012886             0.017473
 MD| Energy drift per atom [K]          -0.404717345881E+01  -0.310524262840E+01
 MD| Potential energy [hartree]         -0.134235861384E+02  -0.134279507800E+02
 MD| Kinetic energy [hartree]            0.477946262747E+00   0.431453794973E+00
 MD| Temperature [K]                             242.447089           218.862924
 MD| ***************************************************************************

 ENERGY| Total FORCE_EVAL ( FIST ) energy [a.u.]:            -13.423760087590214

 MD| ***************************************************************************
 MD| Step number                                                            2780
 MD| Time [fs]                                                       6950.000000
 MD| Conserved quantity [hartree]                            -0.130492353922E+02
 MD| ---------------------------------------------------------------------------
 MD|                                          Instantaneous             Averages
 MD| CPU time per MD step [s]                      0.012879             0.017471
 MD| Energy drift per atom [K]          -0.404999084662E+01  -0.310558246589E+01
 MD| Potential energy [hartree]         -0.134237600876E+02  -0.134279492725E+02
 MD| Kinetic energy [hartree]            0.478133447330E+00   0.431470586215E+00
 MD| Temperature [K]                             242.542042           218.871442
 MD| ***************************************************************************

 ENERGY| Total FORCE_EVAL ( FIST ) energy [a.u.]:            -13.423910796534916

 MD| ***************************************************************************
 MD| Step number                                                            2781
 MD| Time [fs]                                                       6952.500000
 MD| Conserved quantity [hartree]                            -0.130492391561E+02
 MD| ---------------------------------------------------------------------------
 MD|                                          Instantaneous             Averages
 MD| CPU time per MD step [s]                      0.049916             0.017483
 MD| Energy drift per atom [K]          -0.405284786184E+01  -0.310592308632E+01
 MD| Potential energy [hartree]         -0.134239107965E+02  -0.134279478204E+02
 MD| Kinetic energy [hartree]            0.478312546380E+00   0.431487429782E+00
 MD| Temperature [K]                             242.632893           218.879986
 MD| ***************************************************************************

 ENERGY| Total FORCE_EVAL ( FIST ) energy [a.u.]:            -13.424038680161956

 MD| ***************************************************************************
 MD| Step number                                                            2782
 MD| Time [fs]                                                       6955.000000
 MD| Conserved quantity [hartree]                            -0.130492429600E+02
 MD| ---------------------------------------------------------------------------
 MD|                                          Instantaneous             Averages
 MD| CPU time per MD step [s]                      0.012905             0.017481
 MD| Energy drift per atom [K]          -0.405573530629E+01  -0.310626449977E+01
 MD| Potential energy [hartree]         -0.134240386802E+02  -0.134279464152E+02
 MD| Kinetic energy [hartree]            0.478695167067E+00   0.431504398775E+00
 MD| Temperature [K]                             242.826984           218.888594
 MD| ***************************************************************************

 ENERGY| Total FORCE_EVAL ( FIST ) energy [a.u.]:            -13.424144088798560

 MD| ***************************************************************************
 MD| Step number                                                            2783
 MD| Time [fs]                                                       6957.500000
 MD| Conserved quantity [hartree]                            -0.130492467947E+02
 MD| ---------------------------------------------------------------------------
 MD|                                          Instantaneous             Averages
 MD| CPU time per MD step [s]                      0.012953             0.017479
 MD| Energy drift per atom [K]          -0.405864617634E+01  -0.310660671381E+01
 MD| Potential energy [hartree]         -0.134241440888E+02  -0.134279450489E+02
 MD| Kinetic energy [hartree]            0.479307918532E+00   0.431521575749E+00
 MD| Temperature [K]                             243.137814           218.897307
 MD| ***************************************************************************

 ENERGY| Total FORCE_EVAL ( FIST ) energy [a.u.]:            -13.424227995431234

 MD| ***************************************************************************
 MD| Step number                                                            2784
 MD| Time [fs]                                                       6960.000000
 MD| Conserved quantity [hartree]                            -0.130492506634E+02
 MD| ---------------------------------------------------------------------------
 MD|                                          Instantaneous             Averages
 MD| CPU time per MD step [s]                      0.012990             0.017478
 MD| Energy drift per atom [K]          -0.406158277773E+01  -0.310694973682E+01
 MD| Potential energy [hartree]         -0.134242279954E+02  -0.134279437138E+02
 MD| Kinetic energy [hartree]            0.479348131693E+00   0.431538754828E+00
 MD| Temperature [K]                             243.158213           218.906021
 MD| ***************************************************************************

 ENERGY| Total FORCE_EVAL ( FIST ) energy [a.u.]:            -13.424291731104432

 MD| ***************************************************************************
 MD| Step number                                                            2785
 MD| Time [fs]                                                       6962.500000
 MD| Conserved quantity [hartree]                            -0.130492545967E+02
 MD| ---------------------------------------------------------------------------
