# Projected DOS for atomic kind C at iteration step i = 0, E(Fermi) =    -0.385741 a.u.
#     MO Eigenvalue [a.u.]      Occupation                 s                py                pz                px               d-2               d-1                d0               d+1               d+2
       1         -1.938319        2.000000        0.41358212        0.05355825        0.18794852        0.23551323        0.01014169        0.01028894        0.03100762        0.02452172        0.03336879
       2         -1.862902        2.000000        0.43912589        0.05360562        0.15548552        0.23336957        0.01595445        0.01523737        0.01593189        0.02325813        0.04795914
       3         -1.787366        2.000000        0.44884744        0.14292630        0.21598102        0.10425388        0.01908428        0.01441860        0.01897090        0.01515235        0.02028239
       4         -1.760470        2.000000        0.34623386        0.09029227        0.35003636        0.11400563        0.02109464        0.02821118        0.02043352        0.02033259        0.00931714
       5         -1.750553        2.000000        0.38567110        0.16603034        0.19891546        0.15137153        0.02780856        0.02387648        0.02089807        0.01715290        0.00821873
       6         -1.716060        2.000000        0.33652845        0.08430600        0.29719618        0.16833560        0.01160128        0.02072254        0.02248837        0.04237183        0.01642870
       7         -1.698967        2.000000        0.32769262        0.06115845        0.18761453        0.33964645        0.01496192        0.01226428        0.02444960        0.02305870        0.00914451
       8         -1.688243        2.000000        0.19715245        0.14394650        0.02366541        0.12625613        0.00777869        0.00756546        0.03103548        0.01476537        0.00815330
       9         -1.673900        2.000000        0.40347829        0.13672876        0.17183345        0.18688946        0.01777148        0.02284731        0.02594122        0.02387645        0.01040922
      10         -1.668794        2.000000        0.32110721        0.23554374        0.15482248        0.18091807        0.01287356        0.02813434        0.02489004        0.01827868        0.02341283
      11         -1.654763        2.000000        0.31830021        0.14023803        0.30329231        0.12089091        0.01429134        0.03972384        0.02318793        0.02865884        0.01136982
      12         -1.650100        2.000000        0.30221148        0.04650564        0.40943115        0.15775731        0.01226144        0.01541665        0.02307557        0.02196977        0.01135657
      13         -1.647306        2.000000        0.17453210        0.14912644        0.02063660        0.14409198        0.01905118        0.00494405        0.02583159        0.00707969        0.01329184
      14         -1.644838        2.000000        0.34263221        0.12976268        0.24059274        0.18486535        0.01860006        0.02507650        0.02247848        0.01920526        0.01617129
      15         -1.632977        2.000000        0.34138637        0.15702932        0.20910150        0.19256983        0.01266894        0.01567243        0.02615845        0.02533872        0.02004632
      16         -1.608187        2.000000        0.34284768        0.16709247        0.19409138        0.18420880        0.02406768        0.02296188        0.02573415        0.02575461        0.01310024
      17         -1.600469        2.000000        0.16135561        0.13011391        0.00679181        0.12708067        0.01700848        0.00282303        0.02845240        0.00187837        0.01519941
      18         -1.596008        2.000000        0.34408827        0.12344180        0.19670799        0.22314101        0.03101371        0.02195569        0.02462836        0.01725184        0.01761957
      19         -1.579253        2.000000        0.31941069        0.16990131        0.22251942        0.16645052        0.01374040        0.03473032        0.02237429        0.03109873        0.01975412
      20         -1.561809        2.000000        0.11869572        0.11860384        0.01380703        0.11778106        0.01265725        0.00222600        0.04109595        0.00221313        0.00971916
      21         -1.551575        2.000000        0.33637290        0.11035235        0.24386629        0.18237365        0.02886468        0.02713496        0.01501504        0.02655561        0.02939147
      22         -1.542877        2.000000        0.31992492        0.16492242        0.26148258        0.13449383        0.01849044        0.03352816        0.01840436        0.03301211        0.01570588
      23         -1.540816        2.000000        0.36362897        0.15863866        0.17957988        0.17059041        0.02129596        0.02425196        0.04210007        0.02117871        0.01867092
      24         -1.527268        2.000000        0.22599201        0.11581158        0.07100342        0.16242425        0.01986809        0.01401446        0.01535895        0.01080006        0.02676318
      25         -1.526421        2.000000        0.36317038        0.18068215        0.15857753        0.16497394        0.02284547        0.02072668        0.03323274        0.03259273        0.01931907
      26         -1.517560        2.000000        0.35469296        0.12300703        0.24136338        0.14868735        0.02642145        0.02092066        0.03322443        0.02547018        0.02612875
      27         -1.515596        2.000000        0.39919705        0.16027487        0.12919685        0.21369885        0.01308015        0.01677329        0.03448049        0.01711065        0.01604911
      28         -1.511026        2.000000        0.12640042        0.12416538        0.00532556        0.12783527        0.02594819        0.00287695        0.02614390        0.00157652        0.01482181
      29         -1.504242        2.000000        0.32998687        0.17147348        0.24443454        0.14832080        0.01589322        0.02693207        0.02305427        0.02562417        0.01418518
      30         -1.491786        2.000000        0.32966008        0.20248273        0.18740626        0.16973336        0.02232619        0.02221659        0.02470254        0.02834427        0.01300193
      31         -1.486670        2.000000        0.30040235        0.06092904        0.28599961        0.24556321        0.01258263        0.01723850        0.01623469        0.05176150        0.00924001
      32         -1.483617        2.000000        0.18404801        0.14443813        0.02709614        0.11722471        0.04170868        0.00752405        0.00490889        0.00595489        0.02037127
      33         -1.475582        2.000000        0.36070734        0.18981905        0.19583399        0.13557931        0.02400575        0.03493407        0.02126279        0.02145333        0.01632210
      34         -1.463065        2.000000        0.24162193        0.25825291        0.19661652        0.20158235        0.01491283        0.02649271        0.01979848        0.02383907        0.01686769
      35         -1.457717        2.000000        0.37857729        0.15789179        0.06595849        0.14515528        0.01735988        0.01193940        0.00992728        0.01502314        0.01722335
      36         -1.457219        2.000000        0.23251676        0.19255498        0.13731828        0.34659109        0.02021921        0.01227135        0.02468821        0.02593585        0.00779494
      37         -1.450994        2.000000        0.29162573        0.16468182        0.26484523        0.17478898        0.02170563        0.01546251        0.03886017        0.01710162        0.01016468
      38         -1.449793        2.000000        0.24376110        0.13803458        0.02369584        0.12890370        0.01137333        0.01002701        0.01868540        0.01997304        0.01087105
      39         -1.449116        2.000000        0.24804913        0.09496243        0.03207513        0.12795127        0.01772802        0.00401438        0.00663515        0.00916582        0.03756370
      40         -1.433075        2.000000        0.23574582        0.23916132        0.26579178        0.14195047        0.01906139        0.02670912        0.03011289        0.02213145        0.01928740
      41         -1.430922        2.000000        0.19865092        0.21232176        0.19181160        0.30101112        0.01411687        0.02295828        0.02582852        0.01599768        0.01728715
      42         -1.411596        2.000000        0.24957894        0.16666652        0.32761352        0.16036306        0.01703163        0.01988972        0.02460288        0.01921808        0.01496552
      43         -1.411371        2.000000        0.25943960        0.17599297        0.30891266        0.15881613        0.01420104        0.02001205        0.02114133        0.02010156        0.02129354
      44         -1.405428        2.000000        0.28858927        0.22456887        0.21988678        0.16487844        0.01208111        0.01630358        0.02744558        0.01865206        0.02743873
      45         -1.404711        2.000000        0.28453603        0.05057389        0.38365283        0.16188740        0.01595303        0.01876669        0.04828080        0.02125073        0.01507328
      46         -1.402839        2.000000        0.28235823        0.15704171        0.04334905        0.17456369        0.03261827        0.00633420        0.00857781        0.01732163        0.01963864
      47         -1.399773        2.000000        0.27059545        0.23000375        0.21104480        0.19390541        0.01415358        0.01623992        0.02936380        0.01332504        0.02131182
      48         -1.389989        2.000000        0.27260186        0.16910877        0.28084463        0.16503305        0.01881445        0.02060358        0.03049368        0.01873903        0.02370146
      49         -1.381424        2.000000        0.28776255        0.20236636        0.22445739        0.18027490        0.01880563        0.02518302        0.02260157        0.02523213        0.01321813
      50         -1.370611        2.000000        0.21945589        0.12134121        0.04099815        0.10045656        0.04334882        0.00319737        0.01469419        0.00472686        0.02672387
      51         -1.369418        2.000000        0.41148679        0.28095468        0.11857892        0.08641664        0.01857705        0.01938196        0.01245179        0.01713133        0.03490902
      52         -1.368878        2.000000        0.22341522        0.12165475        0.03421928        0.15140358        0.02201665        0.00665149        0.01047953        0.00770483        0.01351303
      53         -1.366661        2.000000        0.18472795        0.16184215        0.06741857        0.27344704        0.02424323        0.00957832        0.01062399        0.01070160        0.01671014
      54         -1.366388        2.000000        0.21853499        0.20420058        0.18049353        0.22715173        0.02629750        0.02003364        0.01956765        0.01646531        0.02279131
      55         -1.359278        2.000000        0.22462477        0.26395931        0.19683044        0.21280362        0.01948052        0.02138323        0.02284364        0.01929394        0.01873042
      56         -1.355801        2.000000        0.22745953        0.18816501        0.31653809        0.15238597        0.02378404        0.02746478        0.02735292        0.01910790        0.01767396
      57         -1.343376        2.000000        0.14229155        0.07202182        0.02429793        0.21361215        0.01376463        0.02044137        0.01983402        0.00754729        0.02387196
      58         -1.341647        2.000000        0.16834356        0.35039069        0.17484591        0.18952608        0.02980751        0.02858548        0.02148920        0.01744188        0.01953943
      59         -1.338020        2.000000        0.21916808        0.18285979        0.26522652        0.24036352        0.01408861        0.01988198        0.01304762        0.02529659        0.02002722
      60         -1.334641        2.000000        0.23021957        0.22989892        0.20698612        0.22899129        0.01860353        0.02527572        0.02360090        0.02225528        0.01413230
      61         -1.332833        2.000000        0.30571858        0.17819753        0.06904312        0.13004374        0.02113763        0.01047347        0.00830302        0.01431039        0.01308860
      62         -1.329839        2.000000        0.16884469        0.44709347        0.13568253        0.12740186        0.02770560        0.02948451        0.02416331        0.01633553        0.02311768
      63         -1.328736        2.000000        0.24678852        0.19278353        0.02722314        0.13775752        0.03252754        0.00485327        0.01065716        0.00443600        0.04720072
      64         -1.322166        2.000000        0.19807795        0.35908825        0.15825075        0.16184322        0.02456256        0.03491435        0.01995050        0.01815919        0.02504997
      65         -1.319099        2.000000        0.16481568        0.26133536        0.29939506        0.17624402        0.02055482        0.02302245        0.02318748        0.01596278        0.01357310
      66         -1.318530        2.000000        0.17504691        0.12875220        0.02226527        0.16650086        0.00838197        0.00235833        0.00604498        0.00780979        0.03580413
      67         -1.313554        2.000000        0.33184074        0.13633421        0.11265861        0.17016105        0.01920473        0.00906714        0.00553680        0.01217667        0.02048174
      68         -1.304227        2.000000        0.36136473        0.24924806        0.12710883        0.15682569        0.02926861        0.01866116        0.01836385        0.02158993        0.01711626
      69         -1.297981        2.000000        0.18460455        0.22953297        0.22630335        0.26026145        0.01219996        0.02484804        0.02097480        0.02487196        0.01634601
      70         -1.297813        2.000000        0.26427961        0.19168015        0.23431772        0.19493368        0.02097062        0.02513469        0.02519082        0.02000779        0.02330205
      71         -1.294085        2.000000        0.18238121        0.27011650        0.20412691        0.23099817        0.02835654        0.02079730        0.01933654        0.01992483        0.02307026
      72         -1.292388        2.000000        0.25736364        0.12110679        0.05705317        0.16567402        0.02446587        0.01110495        0.01230280        0.00733817        0.02921113
      73         -1.290830        2.000000        0.27915035        0.32412549        0.12977903        0.16505348        0.01085085        0.02237700        0.02134617        0.02253664        0.02465434
      74         -1.288309        2.000000        0.25357382        0.11054535        0.17171657        0.19926596        0.01920185        0.00952025        0.00702970        0.00513817        0.02364168
      75         -1.277639        2.000000        0.23375948        0.26485002        0.21207460        0.18972246        0.01799301        0.02319127        0.01910775        0.02049726        0.01871769
      76         -1.274738        2.000000        0.20975357        0.31822731        0.15176713        0.21693558        0.01391175        0.03171278        0.02604913        0.01672513        0.01490248
      77         -1.269189        2.000000        0.20404828        0.08846962        0.04124211        0.10348522        0.04946686        0.00498006        0.01200370        0.00500142        0.03141502
      78         -1.267935        2.000000        0.24217337        0.09825768        0.03797309        0.17852162        0.02675504        0.00432591        0.00435721        0.00441765        0.02022195
      79         -1.267034        2.000000        0.34857339        0.21989167        0.21540001        0.11580004        0.01414917        0.02521863        0.01717026        0.02148922        0.02150959
      80         -1.265208        2.000000        0.13110581        0.16356187        0.25108260        0.35066281        0.01308472        0.02251998        0.01821651        0.03594616        0.01374491
      81         -1.262568        2.000000        0.20036659        0.22113075        0.21059050        0.26504707        0.01905694        0.02104740        0.02151572        0.02014801        0.02100475
      82         -1.251159        2.000000        0.15709299        0.17999354        0.40203057        0.15870967        0.01765108        0.01898742        0.02333979        0.02173839        0.02041025
      83         -1.250997        2.000000        0.27973934        0.23544892        0.20532581        0.18496016        0.01439478        0.02475823        0.01562417        0.02581289        0.01368001
      84         -1.239584        2.000000        0.27881116        0.18324583        0.23887587        0.17596965        0.02412458        0.01796924        0.03215474        0.02470713        0.02411320
      85         -1.232840        2.000000        0.24056769        0.20144120        0.22623734        0.21710554        0.01880906        0.02358415        0.02922436        0.01840436        0.02454247
      86         -1.230561        2.000000        0.28209685        0.25375550        0.17459270        0.17503476        0.02263768        0.03706141        0.01129694        0.03202076        0.01143612
      87         -1.229643        2.000000        0.15046369        0.19753552        0.29870440        0.25174332        0.01667306        0.01997663        0.01984486        0.01749689        0.02581360
      88         -1.229159        2.000000        0.17042732        0.20953695        0.04137425        0.17864433        0.02120572        0.00861766        0.00532951        0.00774087        0.03572486
      89         -1.228661        2.000000        0.16343831        0.18222721        0.04757840        0.14425396        0.01919204        0.00590376        0.00575710        0.00507723        0.02950325
      90         -1.226682        2.000000        0.28695221        0.17690854        0.04360608        0.14002370        0.03699613        0.00778937        0.00955988        0.00831405        0.02799664
      91         -1.221222        2.000000        0.16688856        0.11777520        0.24587363        0.35024669        0.01734219        0.01340367        0.04102332        0.02371181        0.02367963
      92         -1.216161        2.000000        0.19006094        0.18076957        0.06366443        0.13144416        0.01870043        0.01128956        0.01024609        0.00401921        0.03127396
      93         -1.211891        2.000000        0.32760368        0.17992276        0.04261453        0.11871318        0.03755722        0.01518788        0.00927769        0.01295075        0.02201094
      94         -1.210562        2.000000        0.32504272        0.10535544        0.17183736        0.28458436        0.01665727        0.02640965        0.03073077        0.01981903        0.01899136
      95         -1.208645        2.000000        0.21554364        0.12433938        0.04699219        0.14269837        0.02190561        0.00620444        0.01260261        0.00654168        0.02984407
      96         -1.207307        2.000000        0.22144525        0.23029259        0.17649270        0.26102484        0.02078826        0.01682225        0.03339763        0.01869906        0.02097230
      97         -1.202459        2.000000        0.34987076        0.19109359        0.15441108        0.19569644        0.01284997        0.01351447        0.03062750        0.03094180        0.02075403
      98         -1.195712        2.000000        0.18825576        0.19099360        0.04135656        0.16004374        0.02169929        0.00465195        0.00580825        0.00784741        0.01538100
      99         -1.194324        2.000000        0.15246479        0.22840612        0.21788573        0.29385058        0.01710978        0.01835024        0.02959893        0.01938501        0.02278937
     100         -1.189578        2.000000        0.19492490        0.24941395        0.20283192        0.22343632        0.02086145        0.02829596        0.02421679        0.02060268        0.03535532
     101         -1.183127        2.000000        0.18321610        0.14873272        0.25276220        0.31005737        0.01317978        0.01479636        0.03423527        0.02433070        0.01865731
     102         -1.173548        2.000000        0.14712810        0.26956425        0.25213807        0.22541868        0.01865254        0.01825403        0.02907455        0.01746232        0.02190394
     103         -1.172729        2.000000        0.29796135        0.24609461        0.19584770        0.13023111        0.01672387        0.02540947        0.02515143        0.02036860        0.01849826
     104         -1.172606        2.000000        0.33847015        0.13898670        0.06380671        0.12710539        0.01872949        0.01229870        0.00586985        0.00852207        0.02432444
     105         -1.170343        2.000000        0.33787069        0.19783467        0.19900249        0.16485209        0.01162863        0.01893002        0.03556927        0.01274679        0.02146923
     106         -1.167028        2.000000        0.20155305        0.13841258        0.08863912        0.25335666        0.01100848        0.00536935        0.01181680        0.01325916        0.03753786
     107         -1.165007        2.000000        0.15410456        0.25408363        0.25275618        0.23376711        0.01668943        0.02045622        0.02507455        0.02013181        0.02287366
     108         -1.159019        2.000000        0.34470640        0.23505221        0.18355750        0.12519290        0.01404797        0.03306135        0.03128082        0.01510342        0.01795642
     109         -1.155939        2.000000        0.07453240        0.41557956        0.18465599        0.19967326        0.01999104        0.03668802        0.02543949        0.01833298        0.02505441
     110         -1.151812        2.000000        0.16702415        0.25273488        0.19918035        0.24946625        0.02595683        0.02568515        0.02729817        0.02604497        0.02657081
     111         -1.147581        2.000000        0.13803895        0.30925054        0.20451529        0.23763986        0.02405868        0.02210069        0.01551177        0.02541728        0.02289631
     112         -1.145957        2.000000        0.12908930        0.26386725        0.07506819        0.17590937        0.02907322        0.01650859        0.00599120        0.00583535        0.02699950
     113         -1.143274        2.000000        0.33769128        0.15757022        0.23288541        0.15957083        0.02922899        0.01797807        0.02745370        0.01440358        0.02316347
     114         -1.140711        2.000000        0.20292760        0.20495381        0.12499183        0.12426403        0.02002687        0.00757806        0.00965488        0.00811184        0.01579413
     115         -1.136265        2.000000        0.37221458        0.16530542        0.03178883        0.12887342        0.00597183        0.00462777        0.02281666        0.03389309        0.01884539
     116         -1.135055        2.000000        0.19295375        0.31738505        0.13899242        0.23080011        0.02200701        0.02692323        0.02189040        0.02856090        0.02040739
     117         -1.134521        2.000000        0.09782425        0.36685629        0.11761792        0.20632614        0.00947576        0.00825657        0.00765602        0.00617158        0.01665330
     118         -1.134298        2.000000        0.16469284        0.32450034        0.14487772        0.24125780        0.02086873        0.02429309        0.02147874        0.02423192        0.01913380
     119         -1.129481        2.000000        0.12721082        0.28643470        0.22678115        0.26026845        0.01510808        0.02268835        0.02328817        0.01778422        0.02037071
     120         -1.125913        2.000000        0.20352793        0.16148844        0.07823749        0.22988578        0.02119218        0.00529308        0.01212200        0.00639471        0.01490670
     121         -1.125230        2.000000        0.10691285        0.47525573        0.16353622        0.13179612        0.02429675        0.03682646        0.02549012        0.01679275        0.01827690
     122         -1.124472        2.000000        0.21213311        0.12243296        0.13303013        0.24696189        0.01700720        0.00488608        0.00828797        0.00885173        0.02624492
     123         -1.119119        2.000000        0.12624171        0.13599491        0.01063779        0.16115656        0.03258088        0.00623141        0.00264141        0.00330983        0.03379431
     124         -1.117419        2.000000        0.15663428        0.24884800        0.20932977        0.25242008        0.02669798        0.02357454        0.02857529        0.02487949        0.02898060
     125         -1.114570        2.000000        0.13486689        0.19889936        0.17152658        0.36113355        0.02416440        0.02235233        0.02481441        0.04158571        0.02062734
     126         -1.112764        2.000000        0.28854179        0.26288929        0.14879024        0.17487423        0.02963681        0.02408594        0.03074083        0.01616594        0.02425310
     127         -1.111715        2.000000        0.20863229        0.23566795        0.05576327        0.17344426        0.01582916        0.00361339        0.00897255        0.00228876        0.02893783
     128         -1.107248        2.000000        0.22987111        0.19742246        0.06933613        0.11991931        0.04300101        0.00563929        0.01444820        0.02429872        0.01267737
     129         -1.107180        2.000000        0.34070265        0.24697750        0.11419938        0.17764802        0.02372099        0.02707309        0.02743659        0.01600919        0.02613488
     130         -1.106787        2.000000        0.15857038        0.24163714        0.25650863        0.22573886        0.01796111        0.02719697        0.01811030        0.03086389        0.02336622
     131         -1.103909        2.000000        0.22162844        0.14525527        0.09219004        0.24745147        0.01876575        0.00302484        0.01873698        0.00619191        0.01242134
     132         -1.101577        2.000000        0.28782383        0.29949613        0.17277030        0.14486670        0.01952524        0.01837756        0.01824709        0.02447734        0.01438408
     133         -1.099224        2.000000        0.15078049        0.21778931        0.23610498        0.28484993        0.02112325        0.02449913        0.02585008        0.01975767        0.01922634
     134         -1.092399        2.000000        0.19578199        0.24601098        0.07147201        0.21916386        0.01942331        0.00404286        0.00350880        0.00170781        0.03264800
     135         -1.090571        2.000000        0.10652427        0.29905088        0.12963307        0.32339765        0.03083520        0.01971119        0.02224029        0.03488627        0.03345201
     136         -1.086617        2.000000        0.21998190        0.18129501        0.07718969        0.22098569        0.02220363        0.00666600        0.02021727        0.00584566        0.02062144
     137         -1.084489        2.000000        0.25560578        0.29830568        0.17387372        0.15022351        0.02843996        0.02613928        0.02609601        0.01380580        0.02748670
     138         -1.078939        2.000000        0.07848503        0.43754587        0.15248031        0.20132937        0.02897376        0.02361230        0.01881972        0.02116014        0.02639525
     139         -1.077769        2.000000        0.22981848        0.13970360        0.05824715        0.12775893        0.02615270        0.01187106        0.01684538        0.00626241        0.02622873
     140         -1.075998        2.000000        0.14028565        0.30512455        0.24980256        0.17070983        0.03164828        0.02378845        0.02159456        0.02474246        0.03192290
     141         -1.075125        2.000000        0.17353016        0.19109974        0.12380158        0.23215315        0.01603429        0.00808040        0.01238837        0.00751845        0.02513886
     142         -1.072371        2.000000        0.25317447        0.17545700        0.03007954        0.10244388        0.01531746        0.00561492        0.01143404        0.00871257        0.01543064
     143         -1.071677        2.000000        0.24157977        0.27259522        0.18690284        0.18451908        0.03218101        0.01797237        0.02783061        0.01224137        0.02379231
     144         -1.068224        2.000000        0.26643523        0.22532598        0.17918934        0.20813920        0.02032082        0.03004967        0.02872706        0.02019543        0.02148341