# Projected DOS for atomic kind S at iteration step i = 0, E(Fermi) =    -0.385741 a.u.
#     MO Eigenvalue [a.u.]      Occupation                 s                py                pz                px               d-2               d-1                d0               d+1               d+2
       1         -1.938319        2.000000        0.00000817        0.00000289        0.00000180        0.00000355        0.00000004        0.00000003        0.00000013        0.00000002        0.00000002
       2         -1.862902        2.000000        0.00000702        0.00000652        0.00000208        0.00000483        0.00000002        0.00000000        0.00000001        0.00000001        0.00000003
       3         -1.787366        2.000000        0.00000545        0.00000179        0.00000067        0.00000173        0.00000002        0.00000002        0.00000006        0.00000003        0.00000002
       4         -1.760470        2.000000        0.00000085        0.00000057        0.00000061        0.00000045        0.00000003        0.00000002        0.00000003        0.00000003        0.00000001
       5         -1.750553        2.000000        0.00000561        0.00000107        0.00000122        0.00000312        0.00000001        0.00000001        0.00000005        0.00000003        0.00000001
       6         -1.716060        2.000000        0.00000210        0.00000022        0.00000093        0.00000066        0.00000009        0.00000004        0.00000002        0.00000009        0.00000003
       7         -1.698967        2.000000        0.00000118        0.00000011        0.00000081        0.00000069        0.00000004        0.00000000        0.00000001        0.00000006        0.00000001
       8         -1.688243        2.000000        0.00026882        0.00009319        0.00010489        0.00012246        0.00000148        0.00000236        0.00000029        0.00000358        0.00000256
       9         -1.673900        2.000000        0.00000952        0.00001192        0.00000259        0.00001662        0.00000037        0.00000034        0.00000034        0.00000026        0.00000012
      10         -1.668794        2.000000        0.00000169        0.00000024        0.00000051        0.00000041        0.00000002        0.00000002        0.00000001        0.00000002        0.00000000
      11         -1.654763        2.000000        0.00000137        0.00000234        0.00000067        0.00000387        0.00000006        0.00000008        0.00000006        0.00000005        0.00000002
      12         -1.650100        2.000000        0.00000083        0.00000026        0.00000080        0.00000088        0.00000002        0.00000001        0.00000001        0.00000004        0.00000001
      13         -1.647306        2.000000        0.00016643        0.00008419        0.00007909        0.00009152        0.00000137        0.00000230        0.00000018        0.00000303        0.00000234
      14         -1.644838        2.000000        0.00000179        0.00000438        0.00000090        0.00000680        0.00000024        0.00000016        0.00000013        0.00000018        0.00000018
      15         -1.632977        2.000000        0.00000040        0.00000047        0.00000058        0.00000114        0.00000004        0.00000005        0.00000003        0.00000002        0.00000003
      16         -1.608187        2.000000        0.00000270        0.00000287        0.00000115        0.00000700        0.00000006        0.00000007        0.00000008        0.00000003        0.00000002
      17         -1.600469        2.000000        0.00008927        0.00002721        0.00001046        0.00005688        0.00000064        0.00000039        0.00000031        0.00000065        0.00000108
      18         -1.596008        2.000000        0.00000619        0.00000079        0.00000082        0.00000266        0.00000014        0.00000015        0.00000009        0.00000026        0.00000005
      19         -1.579253        2.000000        0.00000107        0.00000057        0.00000076        0.00000250        0.00000004        0.00000004        0.00000002        0.00000002        0.00000001
      20         -1.561809        2.000000        0.00012080        0.00004973        0.00000637        0.00004130        0.00000082        0.00000024        0.00000049        0.00000029        0.00000082
      21         -1.551575        2.000000        0.00000210        0.00000084        0.00000056        0.00000469        0.00000014        0.00000008        0.00000003        0.00000013        0.00000004
      22         -1.542877        2.000000        0.00000067        0.00000018        0.00000075        0.00000217        0.00000003        0.00000003        0.00000001        0.00000002        0.00000002
      23         -1.540816        2.000000        0.00000230        0.00000289        0.00000227        0.00002059        0.00000002        0.00000003        0.00000003        0.00000007        0.00000008
      24         -1.527268        2.000000        0.00174564        0.00111767        0.00110471        0.00147064        0.00002646        0.00005488        0.00000214        0.00006829        0.00006909
      25         -1.526421        2.000000        0.00001326        0.00001964        0.00001534        0.00002157        0.00000023        0.00000070        0.00000020        0.00000080        0.00000088
      26         -1.517560        2.000000        0.00000073        0.00000056        0.00000232        0.00000190        0.00000005        0.00000002        0.00000005        0.00000006        0.00000005
      27         -1.515596        2.000000        0.00000437        0.00001604        0.00000359        0.00002527        0.00000002        0.00000001        0.00000005        0.00000005        0.00000004
      28         -1.511026        2.000000        0.00006004        0.00002541        0.00000062        0.00002294        0.00000048        0.00000009        0.00000026        0.00000006        0.00000040
      29         -1.504242        2.000000        0.00000287        0.00000334        0.00000379        0.00002237        0.00000006        0.00000001        0.00000004        0.00000005        0.00000007
      30         -1.491786        2.000000        0.00000680        0.00000206        0.00000206        0.00001432        0.00000003        0.00000004        0.00000011        0.00000003        0.00000003
      31         -1.486670        2.000000        0.00000108        0.00000329        0.00000308        0.00001325        0.00000003        0.00000001        0.00000003        0.00000004        0.00000002
      32         -1.483617        2.000000        0.00049238        0.00022703        0.00027161        0.00044763        0.00000399        0.00001094        0.00000123        0.00002577        0.00002604
      33         -1.475582        2.000000        0.00000516        0.00000606        0.00000220        0.00000927        0.00000001        0.00000002        0.00000004        0.00000002        0.00000007
      34         -1.463065        2.000000        0.00000031        0.00000036        0.00000028        0.00000246        0.00000002        0.00000001        0.00000002        0.00000002        0.00000004
      35         -1.457717        2.000000        0.02389527        0.01550279        0.01073555        0.01575938        0.00041470        0.00089833        0.00011487        0.00092156        0.00117101
      36         -1.457219        2.000000        0.00000875        0.00001849        0.00000529        0.00001416        0.00000016        0.00000037        0.00000004        0.00000040        0.00000033
      37         -1.450994        2.000000        0.00000340        0.00000141        0.00000115        0.00000284        0.00000002        0.00000004        0.00000001        0.00000005        0.00000009
      38         -1.449793        2.000000        0.00046535        0.00020907        0.00024235        0.00027323        0.00000500        0.00000820        0.00000001        0.00000901        0.00000605
      39         -1.449116        2.000000        0.00236660        0.00130899        0.00104391        0.00188111        0.00002924        0.00007555        0.00001396        0.00012440        0.00015042
      40         -1.433075        2.000000        0.00000195        0.00000162        0.00000123        0.00000828        0.00000001        0.00000003        0.00000002        0.00000001        0.00000006
      41         -1.430922        2.000000        0.00000036        0.00000016        0.00000051        0.00000209        0.00000001        0.00000002        0.00000004        0.00000004        0.00000001
      42         -1.411596        2.000000        0.00000063        0.00000424        0.00000321        0.00001148        0.00000005        0.00000002        0.00000004        0.00000009        0.00000003
      43         -1.411371        2.000000        0.00000165        0.00000356        0.00000235        0.00001672        0.00000009        0.00000003        0.00000003        0.00000002        0.00000002
      44         -1.405428        2.000000        0.00000587        0.00000585        0.00000390        0.00002760        0.00000005        0.00000003        0.00000008        0.00000007        0.00000002
      45         -1.404711        2.000000        0.00000243        0.00000060        0.00000193        0.00000174        0.00000001        0.00000001        0.00000006        0.00000008        0.00000001
      46         -1.402839        2.000000        0.00065813        0.00039765        0.00038157        0.00039392        0.00003320        0.00002938        0.00000169        0.00002838        0.00001041
      47         -1.399773        2.000000        0.00000068        0.00000145        0.00000141        0.00000697        0.00000004        0.00000005        0.00000002        0.00000005        0.00000001
      48         -1.389989        2.000000        0.00000250        0.00000344        0.00000371        0.00001264        0.00000009        0.00000009        0.00000004        0.00000010        0.00000002
      49         -1.381424        2.000000        0.00000265        0.00000105        0.00000168        0.00000529        0.00000001        0.00000002        0.00000002        0.00000001        0.00000004
      50         -1.370611        2.000000        0.00167497        0.00092679        0.00026192        0.00063670        0.00002438        0.00004742        0.00001786        0.00004089        0.00007151
      51         -1.369418        2.000000        0.00000860        0.00000985        0.00000555        0.00000941        0.00000004        0.00000001        0.00000003        0.00000006        0.00000001
      52         -1.368878        2.000000        0.00168310        0.00114777        0.00085726        0.00112548        0.00003564        0.00005760        0.00000353        0.00004667        0.00004442
      53         -1.366661        2.000000        0.00077351        0.00039315        0.00028712        0.00030054        0.00003238        0.00002942        0.00000379        0.00002159        0.00001252
      54         -1.366388        2.000000        0.00023236        0.00012328        0.00006740        0.00008755        0.00000896        0.00000807        0.00000082        0.00000634        0.00000333
      55         -1.359278        2.000000        0.00000102        0.00000162        0.00000261        0.00000876        0.00000004        0.00000009        0.00000007        0.00000017        0.00000009
      56         -1.355801        2.000000        0.00000309        0.00000322        0.00000199        0.00000352        0.00000002        0.00000006        0.00000003        0.00000004        0.00000005
      57         -1.343376        2.000000        0.00011101        0.00006520        0.00002875        0.00000859        0.00000087        0.00000119        0.00000006        0.00000044        0.00000012
      58         -1.341647        2.000000        0.00000076        0.00000023        0.00000119        0.00000320        0.00000005        0.00000002        0.00000002        0.00000011        0.00000002
      59         -1.338020        2.000000        0.00000152        0.00000040        0.00000273        0.00000546        0.00000003        0.00000004        0.00000017        0.00000015        0.00000003
      60         -1.334641        2.000000        0.00000101        0.00000183        0.00000113        0.00000031        0.00000003        0.00000005        0.00000004        0.00000008        0.00000005
      61         -1.332833        2.000000        0.01572546        0.01061678        0.00642450        0.00930553        0.00033655        0.00056593        0.00006561        0.00041989        0.00045608
      62         -1.329839        2.000000        0.00000894        0.00000479        0.00000520        0.00000990        0.00000017        0.00000028        0.00000008        0.00000036        0.00000021
      63         -1.328736        2.000000        0.00024604        0.00025886        0.00001578        0.00015256        0.00000651        0.00000106        0.00000244        0.00000223        0.00000497
      64         -1.322166        2.000000        0.00000096        0.00000303        0.00000181        0.00000308        0.00000006        0.00000008        0.00000003        0.00000012        0.00000003
      65         -1.319099        2.000000        0.00001335        0.00000849        0.00000356        0.00001004        0.00000043        0.00000059        0.00000012        0.00000024        0.00000018
      66         -1.318530        2.000000        0.00133436        0.00091545        0.00048025        0.00068018        0.00003067        0.00005070        0.00000673        0.00002896        0.00003347
      67         -1.313554        2.000000        0.02458250        0.00768808        0.00350868        0.00312376        0.00050461        0.00050228        0.00010551        0.00026196        0.00023366
      68         -1.304227        2.000000        0.00002551        0.00011644        0.00005209        0.00009896        0.00000008        0.00000002        0.00000005        0.00000018        0.00000004
      69         -1.297981        2.000000        0.00000573        0.00000411        0.00000186        0.00001464        0.00000009        0.00000011        0.00000005        0.00000018        0.00000017
      70         -1.297813        2.000000        0.00000272        0.00000208        0.00000154        0.00000382        0.00000005        0.00000035        0.00000005        0.00000014        0.00000008
      71         -1.294085        2.000000        0.00001635        0.00002152        0.00000787        0.00001114        0.00000043        0.00000099        0.00000025        0.00000089        0.00000066
      72         -1.292388        2.000000        0.01163581        0.00688208        0.00312335        0.00561116        0.00019715        0.00036942        0.00007958        0.00028497        0.00036691
      73         -1.290830        2.000000        0.00000203        0.00002619        0.00001177        0.00001170        0.00000003        0.00000009        0.00000005        0.00000008        0.00000018
      74         -1.288309        2.000000        0.01381769        0.00359600        0.00185023        0.00817267        0.00024762        0.00018410        0.00020280        0.00070780        0.00061248
      75         -1.277639        2.000000        0.00000466        0.00001869        0.00000759        0.00001890        0.00000008        0.00000002        0.00000004        0.00000007        0.00000004
      76         -1.274738        2.000000        0.00000031        0.00000111        0.00000024        0.00000024        0.00000005        0.00000004        0.00000004        0.00000003        0.00000006
      77         -1.269189        2.000000        0.00369904        0.00182801        0.00077725        0.00168293        0.00004144        0.00009017        0.00002723        0.00009454        0.00012172
      78         -1.267935        2.000000        0.01456785        0.00121004        0.00173487        0.00401605        0.00022187        0.00007643        0.00000343        0.00034844        0.00027753
      79         -1.267034        2.000000        0.00001973        0.00003860        0.00002349        0.00002286        0.00000020        0.00000011        0.00000004        0.00000102        0.00000044
      80         -1.265208        2.000000        0.00000214        0.00000173        0.00000082        0.00000393        0.00000031        0.00000008        0.00000009        0.00000010        0.00000022
      81         -1.262568        2.000000        0.00000215        0.00000169        0.00000300        0.00000168        0.00000007        0.00000008        0.00000006        0.00000022        0.00000005
      82         -1.251159        2.000000        0.00000173        0.00000553        0.00000329        0.00000496        0.00000002        0.00000005        0.00000006        0.00000006        0.00000004
      83         -1.250997        2.000000        0.00001810        0.00006769        0.00003240        0.00004980        0.00000006        0.00000007        0.00000003        0.00000044        0.00000005
      84         -1.239584        2.000000        0.00000074        0.00000017        0.00000057        0.00000028        0.00000005        0.00000006        0.00000003        0.00000004        0.00000004
      85         -1.232840        2.000000        0.00000125        0.00000328        0.00000291        0.00000277        0.00000007        0.00000003        0.00000011        0.00000007        0.00000018
      86         -1.230561        2.000000        0.00001327        0.00000357        0.00000101        0.00000196        0.00000007        0.00000005        0.00000010        0.00000012        0.00000009
      87         -1.229643        2.000000        0.00009647        0.00001159        0.00000292        0.00001040        0.00000016        0.00000028        0.00000038        0.00000039        0.00000140
      88         -1.229159        2.000000        0.00275447        0.00108907        0.00034820        0.00119699        0.00001656        0.00004633        0.00002864        0.00008776        0.00011137
      89         -1.228661        2.000000        0.05955744        0.00443341        0.00066146        0.00076629        0.00008426        0.00002084        0.00015280        0.00014217        0.00024968
      90         -1.226682        2.000000        0.00108612        0.00021410        0.00042999        0.00133068        0.00001054        0.00000145        0.00000715        0.00011086        0.00010107
      91         -1.221222        2.000000        0.00000861        0.00000117        0.00000132        0.00000096        0.00000010        0.00000009        0.00000006        0.00000016        0.00000007
      92         -1.216161        2.000000        0.10735259        0.00653301        0.00051818        0.00164688        0.00014571        0.00001122        0.00029419        0.00038110        0.00068338
      93         -1.211891        2.000000        0.00275009        0.00019948        0.00104757        0.00288033        0.00005198        0.00001318        0.00000273        0.00025315        0.00020394
      94         -1.210562        2.000000        0.00001988        0.00002685        0.00001195        0.00001253        0.00000072        0.00000024        0.00000052        0.00000053        0.00000026
      95         -1.208645        2.000000        0.06640473        0.01143354        0.00112679        0.01097124        0.00035214        0.00032272        0.00056299        0.00080665        0.00028766
      96         -1.207307        2.000000        0.00000258        0.00000094        0.00000082        0.00000081        0.00000002        0.00000013        0.00000011        0.00000017        0.00000020
      97         -1.202459        2.000000        0.00002532        0.00004346        0.00002364        0.00005238        0.00000004        0.00000009        0.00000018        0.00000016        0.00000026
      98         -1.195712        2.000000        0.03022490        0.00321081        0.00118015        0.00390911        0.00041077        0.00013212        0.00011655        0.00024036        0.00057154
      99         -1.194324        2.000000        0.00000758        0.00000392        0.00000110        0.00000376        0.00000029        0.00000017        0.00000009        0.00000015        0.00000026
     100         -1.189578        2.000000        0.00000174        0.00000090        0.00000082        0.00000106        0.00000018        0.00000008        0.00000003        0.00000011        0.00000012
     101         -1.183127        2.000000        0.00000112        0.00000054        0.00000027        0.00000053        0.00000008        0.00000007        0.00000006        0.00000004        0.00000009
     102         -1.173548        2.000000        0.00001950        0.00000144        0.00000241        0.00001563        0.00000028        0.00000033        0.00000027        0.00000103        0.00000117
     103         -1.172729        2.000000        0.00140089        0.00007500        0.00021382        0.00084549        0.00001771        0.00000544        0.00000058        0.00006634        0.00006121
     104         -1.172606        2.000000        0.01447827        0.00073907        0.00250892        0.00884612        0.00019728        0.00005883        0.00000620        0.00073058        0.00068190
     105         -1.170343        2.000000        0.00001035        0.00001404        0.00000608        0.00001930        0.00000022        0.00000009        0.00000013        0.00000015        0.00000028
     106         -1.167028        2.000000        0.04230639        0.01412590        0.00107344        0.01873413        0.00084762        0.00042531        0.00031217        0.00014809        0.00097914
     107         -1.165007        2.000000        0.00000666        0.00000419        0.00000086        0.00000289        0.00000028        0.00000009        0.00000010        0.00000014        0.00000044
     108         -1.159019        2.000000        0.00000355        0.00000851        0.00000402        0.00000394        0.00000004        0.00000003        0.00000002        0.00000007        0.00000005
     109         -1.155939        2.000000        0.00000960        0.00000136        0.00000133        0.00000247        0.00000006        0.00000024        0.00000018        0.00000026        0.00000025
     110         -1.151812        2.000000        0.00000552        0.00000240        0.00000086        0.00000255        0.00000009        0.00000011        0.00000014        0.00000005        0.00000028
     111         -1.147581        2.000000        0.00017570        0.00002006        0.00000311        0.00000855        0.00000047        0.00000090        0.00000020        0.00000059        0.00000031
     112         -1.145957        2.000000        0.08601757        0.00956961        0.00213989        0.00351146        0.00024456        0.00036479        0.00017360        0.00031013        0.00009401
     113         -1.143274        2.000000        0.00001698        0.00000551        0.00000129        0.00000430        0.00000004        0.00000007        0.00000005        0.00000007        0.00000007
     114         -1.140711        2.000000        0.11776548        0.01125650        0.00122312        0.00971230        0.00028597        0.00020765        0.00021716        0.00045875        0.00057609
     115         -1.136265        2.000000        0.00220376        0.00113080        0.00107014        0.00118023        0.00001342        0.00008165        0.00000112        0.00005651        0.00004945
     116         -1.135055        2.000000        0.00001441        0.00000781        0.00000587        0.00001348        0.00000021        0.00000007        0.00000027        0.00000058        0.00000013
     117         -1.134521        2.000000        0.01846758        0.00442396        0.00110572        0.00934917        0.00089428        0.00046576        0.00036914        0.00073920        0.00096313
     118         -1.134298        2.000000        0.00164340        0.00037424        0.00010445        0.00069654        0.00007949        0.00004297        0.00003310        0.00006277        0.00008436
     119         -1.129481        2.000000        0.00000339        0.00000430        0.00000510        0.00000516        0.00000048        0.00000019        0.00000015        0.00000037        0.00000016
     120         -1.125913        2.000000        0.03927174        0.00651922        0.00199866        0.03646973        0.00032599        0.00001082        0.00014965        0.00092415        0.00293448
     121         -1.125230        2.000000        0.00012530        0.00002235        0.00000438        0.00008500        0.00000150        0.00000022        0.00000041        0.00000261        0.00000766
     122         -1.124472        2.000000        0.05616221        0.00749499        0.00058845        0.00308477        0.00005711        0.00008843        0.00029606        0.00055001        0.00007898
     123         -1.119119        2.000000        0.00278614        0.00011866        0.00010692        0.00060388        0.00000689        0.00000163        0.00000169        0.00004152        0.00005847
     124         -1.117419        2.000000        0.00000283        0.00000214        0.00000063        0.00000133        0.00000032        0.00000022        0.00000011        0.00000016        0.00000043
     125         -1.114570        2.000000        0.00000195        0.00000072        0.00000046        0.00000085        0.00000012        0.00000008        0.00000017        0.00000022        0.00000007
     126         -1.112764        2.000000        0.00000173        0.00000403        0.00000081        0.00000162        0.00000018        0.00000006        0.00000010        0.00000014        0.00000011
     127         -1.111715        2.000000        0.00719510        0.00340602        0.00030576        0.00251455        0.00054377        0.00004419        0.00006401        0.00012166        0.00044908
     128         -1.107248        2.000000        0.00073871        0.00039879        0.00033230        0.00036181        0.00000806        0.00002580        0.00000186        0.00001663        0.00001809
     129         -1.107180        2.000000        0.00000307        0.00000649        0.00000297        0.00000187        0.00000007        0.00000004        0.00000010        0.00000013        0.00000010
     130         -1.106787        2.000000        0.00000351        0.00000090        0.00000086        0.00000081        0.00000018        0.00000016        0.00000011        0.00000020        0.00000023
     131         -1.103909        2.000000        0.06760552        0.01806050        0.00183160        0.02102263        0.00048042        0.00053152        0.00033756        0.00011663        0.00154490
     132         -1.101577        2.000000        0.00000363        0.00001095        0.00000456        0.00000244        0.00000008        0.00000004        0.00000007        0.00000007        0.00000011
     133         -1.099224        2.000000        0.00000125        0.00000087        0.00000121        0.00000055        0.00000012        0.00000020        0.00000013        0.00000012        0.00000012
     134         -1.092399        2.000000        0.00355549        0.00185647        0.00009169        0.00052246        0.00016874        0.00007354        0.00004434        0.00004182        0.00019799
     135         -1.090571        2.000000        0.00004269        0.00000582        0.00000496        0.00000637        0.00000138        0.00000021        0.00000028        0.00000030        0.00000098
     136         -1.086617        2.000000        0.07279822        0.02553978        0.00214990        0.01306860        0.00060913        0.00100503        0.00054875        0.00107138        0.00070347
     137         -1.084489        2.000000        0.00000403        0.00000118        0.00000500        0.00000222        0.00000019        0.00000006        0.00000009        0.00000022        0.00000012
     138         -1.078939        2.000000        0.00415305        0.00018627        0.00013084        0.00010987        0.00001363        0.00001049        0.00000662        0.00004650        0.00003594
     139         -1.077769        2.000000        0.12761766        0.00623924        0.00301200        0.00334427        0.00040850        0.00032177        0.00023313        0.00146782        0.00090880
     140         -1.075998        2.000000        0.00010998        0.00000689        0.00000262        0.00000426        0.00000038        0.00000037        0.00000064        0.00000068        0.00000105
     141         -1.075125        2.000000        0.04933869        0.01082509        0.00354449        0.01122358        0.00200322        0.00125960        0.00016338        0.00251551        0.00023611
     142         -1.072371        2.000000        0.00607648        0.00541334        0.00360845        0.00731032        0.00038884        0.00068696        0.00003666        0.00046404        0.00053668
     143         -1.071677        2.000000        0.00006535        0.00001083        0.00000392        0.00002565        0.00000027        0.00000024        0.00000027        0.00000034        0.00000013
     144         -1.068224        2.000000        0.00001058        0.00000879        0.00001265        0.00001700        0.00000029        0.00000013        0.00000010        0.00000007        0.00000010