# Projected DOS for atomic kind B at iteration step i = 0, E(Fermi) =    -0.385741 a.u.
#     MO Eigenvalue [a.u.]      Occupation                 s                py                pz                px               d-2               d-1                d0               d+1               d+2
       1         -1.938319        2.000000        0.00000131        0.00000003        0.00000033        0.00000001        0.00000000        0.00000000        0.00000001        0.00000000        0.00000000
       2         -1.862902        2.000000        0.00000005        0.00000001        0.00000001        0.00000001        0.00000000        0.00000000        0.00000000        0.00000000        0.00000000
       3         -1.787366        2.000000        0.00000146        0.00000003        0.00000009        0.00000002        0.00000000        0.00000000        0.00000000        0.00000001        0.00000000
       4         -1.760470        2.000000        0.00000037        0.00000003        0.00000017        0.00000003        0.00000000        0.00000001        0.00000001        0.00000002        0.00000000
       5         -1.750553        2.000000        0.00000055        0.00000001        0.00000005        0.00000003        0.00000000        0.00000001        0.00000000        0.00000002        0.00000000
       6         -1.716060        2.000000        0.00000008        0.00000000        0.00000002        0.00000002        0.00000000        0.00000001        0.00000000        0.00000001        0.00000000
       7         -1.698967        2.000000        0.00000000        0.00000000        0.00000000        0.00000000        0.00000000        0.00000000        0.00000000        0.00000000        0.00000000
       8         -1.688243        2.000000        0.02745841        0.00053443        0.03039358        0.00401525        0.00051773        0.00000051        0.00010929        0.00332862        0.00005547
       9         -1.673900        2.000000        0.00000168        0.00000008        0.00000131        0.00000009        0.00000000        0.00000002        0.00000001        0.00000005        0.00000005
      10         -1.668794        2.000000        0.00000020        0.00000001        0.00000022        0.00000003        0.00000001        0.00000000        0.00000000        0.00000003        0.00000001
      11         -1.654763        2.000000        0.00000010        0.00000041        0.00000021        0.00000028        0.00000005        0.00000023        0.00000001        0.00000014        0.00000007
      12         -1.650100        2.000000        0.00000001        0.00000002        0.00000001        0.00000001        0.00000000        0.00000001        0.00000000        0.00000000        0.00000000
      13         -1.647306        2.000000        0.00919737        0.02786968        0.00767412        0.00592700        0.00159010        0.01442170        0.00106792        0.00359565        0.00577889
      14         -1.644838        2.000000        0.00000956        0.00003312        0.00000494        0.00000800        0.00000204        0.00001673        0.00000119        0.00000552        0.00000622
      15         -1.632977        2.000000        0.00000008        0.00000023        0.00000001        0.00000005        0.00000001        0.00000021        0.00000000        0.00000006        0.00000004
      16         -1.608187        2.000000        0.00000066        0.00000528        0.00000048        0.00000360        0.00000031        0.00000268        0.00000001        0.00000166        0.00000151
      17         -1.600469        2.000000        0.00544282        0.02272035        0.00588039        0.02611501        0.00223999        0.01155129        0.00000520        0.01266754        0.00664951
      18         -1.596008        2.000000        0.00000285        0.00000679        0.00000423        0.00000296        0.00000023        0.00000316        0.00000001        0.00000127        0.00000151
      19         -1.579253        2.000000        0.00000021        0.00000002        0.00000002        0.00000001        0.00000000        0.00000000        0.00000000        0.00000001        0.00000000
      20         -1.561809        2.000000        0.03554558        0.00699294        0.03351996        0.00913062        0.00055303        0.00258159        0.00137753        0.00391106        0.00071746
      21         -1.551575        2.000000        0.00000105        0.00000006        0.00000079        0.00000154        0.00000014        0.00000004        0.00000028        0.00000102        0.00000006
      22         -1.542877        2.000000        0.00000008        0.00000025        0.00000004        0.00000193        0.00000010        0.00000019        0.00000009        0.00000125        0.00000001
      23         -1.540816        2.000000        0.00000018        0.00000010        0.00000001        0.00000017        0.00000000        0.00000007        0.00000002        0.00000009        0.00000001
      24         -1.527268        2.000000        0.00250614        0.00816880        0.00547262        0.02436233        0.00164215        0.00544555        0.00087894        0.01580556        0.00103964
      25         -1.526421        2.000000        0.00002967        0.00009472        0.00006280        0.00027736        0.00001790        0.00006236        0.00001007        0.00017686        0.00001231
      26         -1.517560        2.000000        0.00000080        0.00000234        0.00000098        0.00000141        0.00000017        0.00000153        0.00000019        0.00000092        0.00000079
      27         -1.515596        2.000000        0.00000007        0.00000002        0.00000002        0.00000000        0.00000000        0.00000001        0.00000000        0.00000000        0.00000000
      28         -1.511026        2.000000        0.00062721        0.04521707        0.00039143        0.01346637        0.00269484        0.02281429        0.00020526        0.00664871        0.01603327
      29         -1.504242        2.000000        0.00000018        0.00000023        0.00000004        0.00000002        0.00000004        0.00000011        0.00000001        0.00000001        0.00000006
      30         -1.491786        2.000000        0.00000074        0.00000014        0.00000016        0.00000006        0.00000037        0.00000002        0.00000002        0.00000001        0.00000034
      31         -1.486670        2.000000        0.00000001        0.00000001        0.00000001        0.00000001        0.00000000        0.00000000        0.00000000        0.00000000        0.00000001
      32         -1.483617        2.000000        0.00263635        0.00124389        0.00275215        0.00035834        0.00759897        0.00002544        0.00005202        0.00000241        0.00361031
      33         -1.475582        2.000000        0.00000061        0.00000008        0.00000046        0.00000011        0.00000059        0.00000000        0.00000001        0.00000002        0.00000008
      34         -1.463065        2.000000        0.00000003        0.00000001        0.00000003        0.00000006        0.00000005        0.00000000        0.00000001        0.00000003        0.00000000
      35         -1.457717        2.000000        0.00046127        0.00105813        0.00073499        0.00288795        0.00000339        0.00088076        0.00012648        0.00135781        0.00084469
      36         -1.457219        2.000000        0.00000013        0.00000039        0.00000020        0.00000100        0.00000001        0.00000022        0.00000004        0.00000053        0.00000029
      37         -1.450994        2.000000        0.00000647        0.00001498        0.00001202        0.00003746        0.00000325        0.00001021        0.00000147        0.00002353        0.00000053
      38         -1.449793        2.000000        0.00384336        0.00807846        0.00677575        0.02157718        0.00179748        0.00559682        0.00049167        0.01340121        0.00009549
      39         -1.449116        2.000000        0.00798851        0.00044639        0.00808734        0.00022508        0.00386832        0.00049851        0.00003849        0.00000082        0.00749911
      40         -1.433075        2.000000        0.00000004        0.00000003        0.00000017        0.00000005        0.00000002        0.00000000        0.00000008        0.00000004        0.00000006
      41         -1.430922        2.000000        0.00000009        0.00000007        0.00000010        0.00000004        0.00000000        0.00000002        0.00000002        0.00000001        0.00000009
      42         -1.411596        2.000000        0.00000013        0.00000004        0.00000010        0.00000020        0.00000002        0.00000004        0.00000001        0.00000007        0.00000027
      43         -1.411371        2.000000        0.00000025        0.00000017        0.00000026        0.00000049        0.00000005        0.00000009        0.00000001        0.00000022        0.00000073
      44         -1.405428        2.000000        0.00000100        0.00000025        0.00000018        0.00000066        0.00000002        0.00000008        0.00000006        0.00000026        0.00000039
      45         -1.404711        2.000000        0.00000002        0.00000000        0.00000000        0.00000004        0.00000000        0.00000000        0.00000000        0.00000000        0.00000000
      46         -1.402839        2.000000        0.00019939        0.00034336        0.00017077        0.00212317        0.00020501        0.00001496        0.00010357        0.00082018        0.00282652
      47         -1.399773        2.000000        0.00000016        0.00000004        0.00000020        0.00000031        0.00000004        0.00000000        0.00000002        0.00000012        0.00000023
      48         -1.389989        2.000000        0.00000023        0.00000005        0.00000016        0.00000012        0.00000001        0.00000003        0.00000008        0.00000005        0.00000001
      49         -1.381424        2.000000        0.00000038        0.00000008        0.00000037        0.00000039        0.00000002        0.00000001        0.00000010        0.00000022        0.00000008
      50         -1.370611        2.000000        0.02469280        0.00750331        0.01968015        0.00491859        0.00352147        0.00163328        0.00035089        0.00236340        0.00080485
      51         -1.369418        2.000000        0.00000011        0.00000009        0.00000010        0.00000009        0.00000009        0.00000003        0.00000000        0.00000003        0.00000006
      52         -1.368878        2.000000        0.00211580        0.00158601        0.00276825        0.00217646        0.00383748        0.00060870        0.00015136        0.00078828        0.00245698
      53         -1.366661        2.000000        0.00163659        0.00128060        0.00120110        0.00333762        0.00027720        0.00087714        0.00007633        0.00176103        0.00006369
      54         -1.366388        2.000000        0.00038166        0.00032255        0.00027990        0.00094915        0.00006366        0.00022638        0.00002335        0.00049865        0.00002052
      55         -1.359278        2.000000        0.00000049        0.00000003        0.00000032        0.00000013        0.00000029        0.00000001        0.00000006        0.00000002        0.00000010
      56         -1.355801        2.000000        0.00000020        0.00000006        0.00000017        0.00000017        0.00000005        0.00000001        0.00000001        0.00000010        0.00000002
      57         -1.343376        2.000000        0.01223478        0.02468787        0.01229902        0.00017140        0.00026723        0.01471398        0.00015306        0.00003534        0.00718946
      58         -1.341647        2.000000        0.00000015        0.00000016        0.00000025        0.00000005        0.00000009        0.00000002        0.00000012        0.00000003        0.00000002
      59         -1.338020        2.000000        0.00000003        0.00000012        0.00000005        0.00000006        0.00000008        0.00000006        0.00000006        0.00000005        0.00000006
      60         -1.334641        2.000000        0.00000010        0.00000039        0.00000004        0.00000020        0.00000006        0.00000004        0.00000000        0.00000006        0.00000031
      61         -1.332833        2.000000        0.00093426        0.00131735        0.00176866        0.00204368        0.00486794        0.00100041        0.00009266        0.00157622        0.00108583
      62         -1.329839        2.000000        0.00000083        0.00000150        0.00000108        0.00000131        0.00000282        0.00000080        0.00000004        0.00000081        0.00000041
      63         -1.328736        2.000000        0.00063368        0.01721456        0.00100273        0.00579683        0.00233434        0.00533135        0.00026324        0.00191900        0.00714058
      64         -1.322166        2.000000        0.00000013        0.00000021        0.00000011        0.00000045        0.00000056        0.00000023        0.00000008        0.00000021        0.00000049
      65         -1.319099        2.000000        0.00000560        0.00000271        0.00000595        0.00001193        0.00000509        0.00000450        0.00000022        0.00000874        0.00002209
      66         -1.318530        2.000000        0.00139243        0.00070103        0.00129459        0.00208557        0.00173044        0.00125033        0.00005155        0.00154760        0.00499812
      67         -1.313554        2.000000        0.00022724        0.00029870        0.00023585        0.00205401        0.00018772        0.00010858        0.00001652        0.00090274        0.00014015
      68         -1.304227        2.000000        0.00000037        0.00000005        0.00000030        0.00000011        0.00000003        0.00000001        0.00000001        0.00000008        0.00000008
      69         -1.297981        2.000000        0.00000065        0.00000014        0.00000059        0.00000015        0.00000014        0.00000009        0.00000003        0.00000009        0.00000008
      70         -1.297813        2.000000        0.00000820        0.00000037        0.00000862        0.00000166        0.00000062        0.00000004        0.00000008        0.00000155        0.00000094
      71         -1.294085        2.000000        0.00004696        0.00000173        0.00005002        0.00000557        0.00000238        0.00000012        0.00000130        0.00000351        0.00000449
      72         -1.292388        2.000000        0.01783159        0.00094646        0.01828016        0.00135351        0.00106879        0.00007608        0.00050336        0.00098019        0.00140626
      73         -1.290830        2.000000        0.00000306        0.00000024        0.00000315        0.00000022        0.00000017        0.00000001        0.00000010        0.00000010        0.00000017
      74         -1.288309        2.000000        0.00178686        0.00314101        0.00236976        0.00649184        0.00184932        0.00116472        0.00022766        0.00251775        0.00037798
      75         -1.277639        2.000000        0.00000009        0.00000003        0.00000002        0.00000002        0.00000001        0.00000001        0.00000000        0.00000001        0.00000000
      76         -1.274738        2.000000        0.00000010        0.00000006        0.00000007        0.00000006        0.00000005        0.00000000        0.00000005        0.00000004        0.00000000
      77         -1.269189        2.000000        0.01329452        0.00638591        0.00841218        0.01411185        0.00000350        0.00158637        0.00007762        0.00799384        0.00082210
      78         -1.267935        2.000000        0.00028830        0.00033483        0.00030916        0.00389839        0.00064702        0.00005200        0.00003853        0.00120186        0.00005271
      79         -1.267034        2.000000        0.00000081        0.00000068        0.00000068        0.00000750        0.00000126        0.00000012        0.00000007        0.00000231        0.00000011
      80         -1.265208        2.000000        0.00000082        0.00000035        0.00000028        0.00000177        0.00000009        0.00000012        0.00000009        0.00000108        0.00000009
      81         -1.262568        2.000000        0.00000041        0.00000054        0.00000034        0.00000157        0.00000011        0.00000018        0.00000014        0.00000091        0.00000013
      82         -1.251159        2.000000        0.00000010        0.00000005        0.00000018        0.00000044        0.00000002        0.00000000        0.00000006        0.00000016        0.00000001
      83         -1.250997        2.000000        0.00000010        0.00000002        0.00000003        0.00000025        0.00000008        0.00000000        0.00000001        0.00000006        0.00000001
      84         -1.239584        2.000000        0.00000008        0.00000006        0.00000004        0.00000045        0.00000011        0.00000001        0.00000013        0.00000019        0.00000005
      85         -1.232840        2.000000        0.00000042        0.00000106        0.00000029        0.00000039        0.00000023        0.00000039        0.00000054        0.00000008        0.00000018
      86         -1.230561        2.000000        0.00000030        0.00000015        0.00000016        0.00000131        0.00000035        0.00000004        0.00000000        0.00000026        0.00000005
      87         -1.229643        2.000000        0.00000288        0.00000938        0.00000178        0.00002938        0.00002709        0.00000663        0.00000020        0.00001104        0.00000045
      88         -1.229159        2.000000        0.00010363        0.00114413        0.00023953        0.00678026        0.00708425        0.00104509        0.00017772        0.00320475        0.00000005
      89         -1.228661        2.000000        0.00369126        0.00185066        0.00180870        0.01109294        0.00294055        0.00019756        0.00000030        0.00234408        0.00005171
      90         -1.226682        2.000000        0.00075316        0.01605124        0.00033034        0.00615482        0.00073298        0.00467783        0.00004925        0.00232300        0.00422045
      91         -1.221222        2.000000        0.00000019        0.00000070        0.00000013        0.00000028        0.00000005        0.00000015        0.00000021        0.00000005        0.00000019
      92         -1.216161        2.000000        0.00500063        0.00917218        0.00233234        0.00069710        0.00003719        0.00220103        0.00000207        0.00003723        0.00069474
      93         -1.211891        2.000000        0.00018663        0.01242195        0.00043243        0.00008006        0.00000224        0.00434075        0.00019324        0.00004037        0.00403005
      94         -1.210562        2.000000        0.00002626        0.00000969        0.00001688        0.00000532        0.00000013        0.00000195        0.00000032        0.00000137        0.00000041
      95         -1.208645        2.000000        0.01941794        0.00210553        0.01378918        0.00566682        0.00003310        0.00025981        0.00044410        0.00114249        0.00000293
      96         -1.207307        2.000000        0.00000040        0.00000057        0.00000036        0.00000020        0.00000007        0.00000024        0.00000005        0.00000016        0.00000014
      97         -1.202459        2.000000        0.00000273        0.00000041        0.00000215        0.00000028        0.00000012        0.00000020        0.00000012        0.00000002        0.00000042
      98         -1.195712        2.000000        0.00826654        0.00196612        0.00656493        0.00042342        0.00149013        0.00115036        0.00030669        0.00039269        0.00292911
      99         -1.194324        2.000000        0.00000184        0.00000124        0.00000156        0.00000017        0.00000054        0.00000053        0.00000042        0.00000016        0.00000090
     100         -1.189578        2.000000        0.00000021        0.00000019        0.00000042        0.00000010        0.00000001        0.00000009        0.00000041        0.00000003        0.00000002
     101         -1.183127        2.000000        0.00000005        0.00000006        0.00000011        0.00000010        0.00000004        0.00000002        0.00000001        0.00000001        0.00000008
     102         -1.173548        2.000000        0.00000031        0.00000046        0.00000056        0.00000231        0.00000068        0.00000044        0.00000017        0.00000141        0.00000016
     103         -1.172729        2.000000        0.00001466        0.00006789        0.00002513        0.00016079        0.00001949        0.00001840        0.00000347        0.00008325        0.00000386
     104         -1.172606        2.000000        0.00016827        0.00077702        0.00028919        0.00182914        0.00021598        0.00021105        0.00003823        0.00092672        0.00004330
     105         -1.170343        2.000000        0.00000020        0.00000181        0.00000010        0.00000024        0.00000023        0.00000035        0.00000002        0.00000008        0.00000003
     106         -1.167028        2.000000        0.00158352        0.01302351        0.00055715        0.00007114        0.00172243        0.00241216        0.00000189        0.00002695        0.00057877
     107         -1.165007        2.000000        0.00000043        0.00000205        0.00000019        0.00000022        0.00000012        0.00000034        0.00000014        0.00000002        0.00000012
     108         -1.159019        2.000000        0.00000010        0.00000027        0.00000007        0.00000012        0.00000003        0.00000006        0.00000002        0.00000009        0.00000009
     109         -1.155939        2.000000        0.00000037        0.00000031        0.00000036        0.00000048        0.00000004        0.00000022        0.00000023        0.00000027        0.00000021
     110         -1.151812        2.000000        0.00000009        0.00000009        0.00000004        0.00000018        0.00000002        0.00000001        0.00000003        0.00000006        0.00000017
     111         -1.147581        2.000000        0.00000369        0.00000031        0.00000230        0.00000749        0.00000011        0.00000024        0.00000066        0.00000189        0.00000463
     112         -1.145957        2.000000        0.00158554        0.00012505        0.00107674        0.00487530        0.00002976        0.00004451        0.00008801        0.00127705        0.00246176
     113         -1.143274        2.000000        0.00000018        0.00000025        0.00000028        0.00000044        0.00000001        0.00000012        0.00000003        0.00000015        0.00000009
     114         -1.140711        2.000000        0.00151101        0.00264190        0.00182368        0.00350806        0.00000448        0.00094225        0.00018410        0.00128217        0.00002070
     115         -1.136265        2.000000        0.00507404        0.00117206        0.00497036        0.00504560        0.00067799        0.00032060        0.00001874        0.00324572        0.00024645
     116         -1.135055        2.000000        0.00000027        0.00000008        0.00000013        0.00000079        0.00000004        0.00000002        0.00000021        0.00000016        0.00000014
     117         -1.134521        2.000000        0.00011433        0.00566132        0.00052676        0.00782492        0.00004909        0.00102150        0.00030082        0.00127412        0.00014104
     118         -1.134298        2.000000        0.00001297        0.00053003        0.00005285        0.00069748        0.00000429        0.00009324        0.00003296        0.00011363        0.00001075
     119         -1.129481        2.000000        0.00000012        0.00000028        0.00000009        0.00000025        0.00000003        0.00000014        0.00000005        0.00000003        0.00000006
     120         -1.125913        2.000000        0.00210091        0.01705001        0.00325256        0.00266010        0.00006199        0.00314324        0.00088683        0.00018156        0.00004018
     121         -1.125230        2.000000        0.00000842        0.00005140        0.00001048        0.00000774        0.00000038        0.00000924        0.00000098        0.00000073        0.00000054
     122         -1.124472        2.000000        0.00310562        0.00024368        0.00223688        0.00081918        0.00058459        0.00000479        0.00004207        0.00043729        0.00090086
     123         -1.119119        2.000000        0.00128006        0.00017518        0.00121249        0.00738228        0.00500832        0.00002486        0.00008496        0.00137563        0.00065719
     124         -1.117419        2.000000        0.00000067        0.00000063        0.00000037        0.00000073        0.00000014        0.00000013        0.00000002        0.00000012        0.00000002
     125         -1.114570        2.000000        0.00000032        0.00000018        0.00000012        0.00000021        0.00000005        0.00000003        0.00000006        0.00000004        0.00000011
     126         -1.112764        2.000000        0.00000001        0.00000021        0.00000002        0.00000014        0.00000003        0.00000000        0.00000003        0.00000001        0.00000031
     127         -1.111715        2.000000        0.00028172        0.01880164        0.00044811        0.00372532        0.00007900        0.00145272        0.00006359        0.00008992        0.01234067
     128         -1.107248        2.000000        0.01497775        0.01060421        0.01227483        0.00193878        0.00008398        0.00440055        0.00030823        0.00049206        0.00162809
     129         -1.107180        2.000000        0.00000354        0.00000286        0.00000320        0.00000078        0.00000007        0.00000112        0.00000011        0.00000018        0.00000057
     130         -1.106787        2.000000        0.00000069        0.00000111        0.00000061        0.00000015        0.00000003        0.00000035        0.00000032        0.00000004        0.00000018
     131         -1.103909        2.000000        0.00054772        0.00326942        0.00115154        0.00776700        0.00204826        0.00044048        0.00046521        0.00166406        0.00026266
     132         -1.101577        2.000000        0.00000002        0.00000006        0.00000003        0.00000003        0.00000002        0.00000001        0.00000000        0.00000003        0.00000006
     133         -1.099224        2.000000        0.00000009        0.00000009        0.00000023        0.00000010        0.00000003        0.00000002        0.00000003        0.00000002        0.00000006
     134         -1.092399        2.000000        0.00037113        0.00344956        0.00014916        0.00025074        0.00101580        0.00036534        0.00002879        0.00007129        0.00050014
     135         -1.090571        2.000000        0.00000253        0.00000084        0.00000197        0.00000174        0.00000231        0.00000002        0.00000031        0.00000019        0.00000025
     136         -1.086617        2.000000        0.00300740        0.00479080        0.00238472        0.00220562        0.00120396        0.00069611        0.00023104        0.00036905        0.00006173
     137         -1.084489        2.000000        0.00000035        0.00000019        0.00000020        0.00000005        0.00000002        0.00000004        0.00000004        0.00000001        0.00000001
     138         -1.078939        2.000000        0.00059103        0.00007321        0.00033950        0.00001433        0.00000030        0.00001038        0.00001115        0.00000228        0.00000143
     139         -1.077769        2.000000        0.02005435        0.00295888        0.01133651        0.00054930        0.00000423        0.00036023        0.00018515        0.00007518        0.00003526
     140         -1.075998        2.000000        0.00001763        0.00000437        0.00001187        0.00000109        0.00000001        0.00000079        0.00000056        0.00000029        0.00000004
     141         -1.075125        2.000000        0.00358536        0.00290950        0.00279869        0.00063349        0.00017144        0.00017440        0.00033968        0.00035519        0.00291773
     142         -1.072371        2.000000        0.00067316        0.00035678        0.00108754        0.01151459        0.00092085        0.00002269        0.00034825        0.00639039        0.00021304
     143         -1.071677        2.000000        0.00002236        0.00000755        0.00001186        0.00000268        0.00000009        0.00000149        0.00000012        0.00000045        0.00000010
     144         -1.068224        2.000000        0.00000609        0.00000322        0.00000290        0.00000126        0.00000006        0.00000061        0.00000011        0.00000040        0.00000006