# Projected DOS for atomic kind H at iteration step i = 0, E(Fermi) =    -0.385741 a.u.
#     MO Eigenvalue [a.u.]      Occupation                 s                py                pz                px
       1         -1.938319        2.000000        0.00000324        0.00000693        0.00001492        0.00000481
       2         -1.862902        2.000000        0.00000099        0.00001816        0.00001653        0.00001463
       3         -1.787366        2.000000        0.00000458        0.00000600        0.00002043        0.00000555
       4         -1.760470        2.000000        0.00000395        0.00000825        0.00000617        0.00000461
       5         -1.750553        2.000000        0.00000309        0.00000624        0.00000818        0.00000500
       6         -1.716060        2.000000        0.00000327        0.00000378        0.00000554        0.00000126
       7         -1.698967        2.000000        0.00000140        0.00000151        0.00000168        0.00000103
       8         -1.688243        2.000000        0.00194091        0.00160906        0.00028519        0.00105877
       9         -1.673900        2.000000        0.00000461        0.00003784        0.00004528        0.00002169
      10         -1.668794        2.000000        0.00000171        0.00000133        0.00000214        0.00000126
      11         -1.654763        2.000000        0.00000145        0.00000706        0.00000922        0.00000456
      12         -1.650100        2.000000        0.00000400        0.00000242        0.00000239        0.00000164
      13         -1.647306        2.000000        0.00136917        0.00134080        0.00007719        0.00067941
      14         -1.644838        2.000000        0.00000393        0.00002168        0.00002225        0.00001376
      15         -1.632977        2.000000        0.00000100        0.00000410        0.00001116        0.00000191
      16         -1.608187        2.000000        0.00000244        0.00000534        0.00001166        0.00000490
      17         -1.600469        2.000000        0.00066629        0.00067962        0.00002679        0.00050556
      18         -1.596008        2.000000        0.00000079        0.00000417        0.00000289        0.00000479
      19         -1.579253        2.000000        0.00000138        0.00000158        0.00000428        0.00000155
      20         -1.561809        2.000000        0.00065146        0.00049675        0.00005985        0.00050611
      21         -1.551575        2.000000        0.00000095        0.00000324        0.00000509        0.00000373
      22         -1.542877        2.000000        0.00000096        0.00000217        0.00000361        0.00000282
      23         -1.540816        2.000000        0.00000151        0.00000126        0.00001147        0.00000762
      24         -1.527268        2.000000        0.00536896        0.00393679        0.00000540        0.00160122
      25         -1.526421        2.000000        0.00005103        0.00004431        0.00001904        0.00001378
      26         -1.517560        2.000000        0.00000083        0.00000341        0.00000421        0.00000037
      27         -1.515596        2.000000        0.00000111        0.00002636        0.00003714        0.00002307
      28         -1.511026        2.000000        0.00043546        0.00042334        0.00001357        0.00035759
      29         -1.504242        2.000000        0.00000132        0.00000197        0.00001920        0.00002084
      30         -1.491786        2.000000        0.00000248        0.00000269        0.00002306        0.00002023
      31         -1.486670        2.000000        0.00000225        0.00000577        0.00001481        0.00000430
      32         -1.483617        2.000000        0.00157528        0.00075446        0.00009973        0.00118123
      33         -1.475582        2.000000        0.00000246        0.00000411        0.00000867        0.00000355
      34         -1.463065        2.000000        0.00000112        0.00000063        0.00000173        0.00000130
      35         -1.457717        2.000000        0.01220352        0.00816625        0.00094800        0.00282496
      36         -1.457219        2.000000        0.00000688        0.00000775        0.00001047        0.00000448
      37         -1.450994        2.000000        0.00000885        0.00000537        0.00000424        0.00000208
      38         -1.449793        2.000000        0.00316406        0.00295455        0.00028182        0.00092418
      39         -1.449116        2.000000        0.00202799        0.00164111        0.00030286        0.00093604
      40         -1.433075        2.000000        0.00000083        0.00000148        0.00000845        0.00000606
      41         -1.430922        2.000000        0.00000093        0.00000033        0.00000176        0.00000075
      42         -1.411596        2.000000        0.00000379        0.00000728        0.00001377        0.00000782
      43         -1.411371        2.000000        0.00000190        0.00000212        0.00000929        0.00000804
      44         -1.405428        2.000000        0.00000362        0.00000590        0.00002012        0.00001070
      45         -1.404711        2.000000        0.00000345        0.00000381        0.00000582        0.00000400
      46         -1.402839        2.000000        0.00773277        0.00387784        0.00003649        0.00149544
      47         -1.399773        2.000000        0.00000140        0.00000104        0.00000273        0.00000051
      48         -1.389989        2.000000        0.00000186        0.00000126        0.00000505        0.00000307
      49         -1.381424        2.000000        0.00000292        0.00000446        0.00000462        0.00000674
      50         -1.370611        2.000000        0.00205015        0.00122521        0.00008242        0.00183114
      51         -1.369418        2.000000        0.00000367        0.00002173        0.00001111        0.00002983
      52         -1.368878        2.000000        0.00438781        0.00320519        0.00000510        0.00120325
      53         -1.366661        2.000000        0.00397028        0.00159779        0.00006959        0.00143063
      54         -1.366388        2.000000        0.00105019        0.00045645        0.00002670        0.00034542
      55         -1.359278        2.000000        0.00000101        0.00000232        0.00000212        0.00000123
      56         -1.355801        2.000000        0.00000163        0.00000360        0.00000704        0.00000472
      57         -1.343376        2.000000        0.00075024        0.00032961        0.00018089        0.00079424
      58         -1.341647        2.000000        0.00000185        0.00000170        0.00000073        0.00000046
      59         -1.338020        2.000000        0.00000121        0.00000564        0.00000546        0.00000691
      60         -1.334641        2.000000        0.00000210        0.00000178        0.00000273        0.00000268
      61         -1.332833        2.000000        0.01600489        0.00933029        0.00042628        0.00333401
      62         -1.329839        2.000000        0.00001126        0.00000488        0.00000359        0.00000537
      63         -1.328736        2.000000        0.00276973        0.00159415        0.00002079        0.00211506
      64         -1.322166        2.000000        0.00000114        0.00000070        0.00000176        0.00000261
      65         -1.319099        2.000000        0.00001580        0.00000766        0.00000212        0.00000361
      66         -1.318530        2.000000        0.00151896        0.00104700        0.00010230        0.00038879
      67         -1.313554        2.000000        0.01737148        0.00580474        0.00107008        0.00452370
      68         -1.304227        2.000000        0.00000662        0.00004938        0.00004644        0.00004918
      69         -1.297981        2.000000        0.00000247        0.00000156        0.00000199        0.00000208
      70         -1.297813        2.000000        0.00000168        0.00000121        0.00000184        0.00000283
      71         -1.294085        2.000000        0.00000942        0.00000630        0.00000418        0.00001017
      72         -1.292388        2.000000        0.00201462        0.00127545        0.00100674        0.00191160
      73         -1.290830        2.000000        0.00000676        0.00000607        0.00000600        0.00000802
      74         -1.288309        2.000000        0.01649790        0.00682686        0.00050674        0.00188067
      75         -1.277639        2.000000        0.00000520        0.00000738        0.00000902        0.00000878
      76         -1.274738        2.000000        0.00000097        0.00000042        0.00000108        0.00000029
      77         -1.269189        2.000000        0.00141449        0.00107464        0.00017433        0.00110884
      78         -1.267935        2.000000        0.00376025        0.00138794        0.00075364        0.00114318
      79         -1.267034        2.000000        0.00001686        0.00002111        0.00000939        0.00001439
      80         -1.265208        2.000000        0.00000138        0.00000039        0.00000236        0.00000061
      81         -1.262568        2.000000        0.00000152        0.00000161        0.00000228        0.00000142
      82         -1.251159        2.000000        0.00000097        0.00000321        0.00000369        0.00000257
      83         -1.250997        2.000000        0.00000525        0.00002528        0.00002906        0.00001419
      84         -1.239584        2.000000        0.00000142        0.00000045        0.00000046        0.00000115
      85         -1.232840        2.000000        0.00000421        0.00000485        0.00000238        0.00000149
      86         -1.230561        2.000000        0.00000256        0.00000295        0.00000229        0.00000158
      87         -1.229643        2.000000        0.00001796        0.00001279        0.00000352        0.00000441
      88         -1.229159        2.000000        0.00205549        0.00152518        0.00028549        0.00076401
      89         -1.228661        2.000000        0.00268023        0.00128496        0.00056408        0.00173314
      90         -1.226682        2.000000        0.00745309        0.00390472        0.00003296        0.00243378
      91         -1.221222        2.000000        0.00000245        0.00000092        0.00000091        0.00000092
      92         -1.216161        2.000000        0.00433068        0.00264922        0.00066986        0.00253293
      93         -1.211891        2.000000        0.01361764        0.00577099        0.00002634        0.00264897
      94         -1.210562        2.000000        0.00001102        0.00000910        0.00000830        0.00000920
      95         -1.208645        2.000000        0.00630720        0.00307245        0.00015053        0.00257385
      96         -1.207307        2.000000        0.00000240        0.00000170        0.00000191        0.00000129
      97         -1.202459        2.000000        0.00000489        0.00001150        0.00000281        0.00001053
      98         -1.195712        2.000000        0.01269010        0.00554164        0.00019756        0.00118473
      99         -1.194324        2.000000        0.00000244        0.00000183        0.00000381        0.00000067
     100         -1.189578        2.000000        0.00000208        0.00000126        0.00000196        0.00000398
     101         -1.183127        2.000000        0.00000103        0.00000072        0.00000147        0.00000101
     102         -1.173548        2.000000        0.00001946        0.00000660        0.00000208        0.00000394
     103         -1.172729        2.000000        0.00120215        0.00044338        0.00009959        0.00009713
     104         -1.172606        2.000000        0.01328945        0.00478585        0.00094241        0.00123151
     105         -1.170343        2.000000        0.00000447        0.00000267        0.00000146        0.00000258
     106         -1.167028        2.000000        0.00534540        0.00163883        0.00038587        0.00373990
     107         -1.165007        2.000000        0.00000191        0.00000130        0.00000183        0.00000134
     108         -1.159019        2.000000        0.00000357        0.00000098        0.00000124        0.00000487
     109         -1.155939        2.000000        0.00000198        0.00000176        0.00000386        0.00000103
     110         -1.151812        2.000000        0.00000211        0.00000073        0.00000225        0.00000093
     111         -1.147581        2.000000        0.00003525        0.00000858        0.00000208        0.00000617
     112         -1.145957        2.000000        0.01631090        0.00475973        0.00005304        0.00134408
     113         -1.143274        2.000000        0.00000207        0.00000139        0.00000087        0.00000334
     114         -1.140711        2.000000        0.00303203        0.00264599        0.00229561        0.00184454
     115         -1.136265        2.000000        0.00750763        0.00578807        0.00051582        0.00268013
     116         -1.135055        2.000000        0.00000434        0.00000143        0.00000428        0.00000543
     117         -1.134521        2.000000        0.00841859        0.00321745        0.00222865        0.00148193
     118         -1.134298        2.000000        0.00074387        0.00024228        0.00020209        0.00011358
     119         -1.129481        2.000000        0.00000593        0.00000236        0.00000180        0.00000242
     120         -1.125913        2.000000        0.01006911        0.00438194        0.00057418        0.00227083
     121         -1.125230        2.000000        0.00003097        0.00001676        0.00000385        0.00001111
     122         -1.124472        2.000000        0.00623689        0.00220303        0.00033020        0.00172539
     123         -1.119119        2.000000        0.00022827        0.00016083        0.00010143        0.00016133
     124         -1.117419        2.000000        0.00000158        0.00000141        0.00000286        0.00000113
     125         -1.114570        2.000000        0.00000061        0.00000083        0.00000101        0.00000078
     126         -1.112764        2.000000        0.00000412        0.00000057        0.00000051        0.00000057
     127         -1.111715        2.000000        0.00821777        0.00319482        0.00023149        0.00346806
     128         -1.107248        2.000000        0.00345487        0.00083722        0.00028030        0.00300319
     129         -1.107180        2.000000        0.00000483        0.00000137        0.00000152        0.00000370
     130         -1.106787        2.000000        0.00000129        0.00000110        0.00000069        0.00000103
     131         -1.103909        2.000000        0.01010609        0.00572643        0.00004793        0.00299170
     132         -1.101577        2.000000        0.00000141        0.00000184        0.00000186        0.00000105
     133         -1.099224        2.000000        0.00000091        0.00000110        0.00000095        0.00000054
     134         -1.092399        2.000000        0.00517511        0.00155599        0.00013160        0.00295307
     135         -1.090571        2.000000        0.00001095        0.00000606        0.00001299        0.00000882
     136         -1.086617        2.000000        0.01084960        0.00532722        0.00030244        0.00418510
     137         -1.084489        2.000000        0.00000219        0.00000175        0.00000130        0.00000041
     138         -1.078939        2.000000        0.00028492        0.00016901        0.00002155        0.00008899
     139         -1.077769        2.000000        0.00840676        0.00473346        0.00007342        0.00276141
     140         -1.075998        2.000000        0.00000840        0.00000524        0.00000416        0.00000635
     141         -1.075125        2.000000        0.00670090        0.00213376        0.00120986        0.00454385
     142         -1.072371        2.000000        0.00557711        0.00433559        0.00030694        0.00151553
     143         -1.071677        2.000000        0.00000735        0.00000674        0.00000269        0.00000373
     144         -1.068224        2.000000        0.00000361        0.00000119        0.00000030        0.00000138
     145         -1.068063        2.000000        0.00000110        0.00000095        0.00000178        0.00000138
     146         -1.064845        2.000000        0.00156118        0.00048621        0.00022563        0.00149487
     147         -1.059603        2.000000        0.01799233        0.00738264        0.00016129        0.00306537
     148         -1.057705        2.000000        0.00615111        0.00424934        0.00066962        0.00246226
     149         -1.056748        2.000000        0.00001446        0.00000512        0.00000734        0.00000511
     150         -1.047811        2.000000        0.00000830        0.00000404        0.00000610        0.00000697
     151         -1.046730        2.000000        0.00756225        0.00126548        0.00020050        0.00452070
     152         -1.044934        2.000000        0.00000558        0.00000121        0.00000322        0.00000130
     153         -1.042347        2.000000        0.00841175        0.00381346        0.00051288        0.00399273
     154         -1.041107        2.000000        0.00000474        0.00000459        0.00000164        0.00000666
     155         -1.040834        2.000000        0.01133018        0.00089459        0.00008905        0.00813447
     156         -1.040116        2.000000        0.00000638        0.00000066        0.00000017        0.00000159
     157         -1.038836        2.000000        0.00721911        0.00136605        0.00003726        0.00117650
     158         -1.038215        2.000000        0.00074402        0.00015358        0.00000215        0.00014818
     159         -1.033821        2.000000        0.01640893        0.00929060        0.00014052        0.00325509
     160         -1.032833        2.000000        0.02127403        0.01514223        0.00024490        0.00424941
     161         -1.032511        2.000000        0.00005707        0.00003245        0.00000353        0.00001774
     162         -1.031639        2.000000        0.00347913        0.00215144        0.00008324        0.00301101
     163         -1.029821        2.000000        0.00001559        0.00000930        0.00000301        0.00000948
     164         -1.028428        2.000000        0.01354825        0.00776809        0.00025367        0.00235419
     165         -1.018809        2.000000        0.00001907        0.00000586        0.00002433        0.00000747
     166         -1.017981        2.000000        0.00000467        0.00000237        0.00000235        0.00000133
     167         -1.016112        2.000000        0.00087815        0.00026227        0.00065152        0.00048902
     168         -1.013624        2.000000        0.00001352        0.00000937        0.00000199        0.00000478
     169         -1.010572        2.000000        0.01817216        0.00962751        0.00031393        0.00604262
     170         -1.009702        2.000000        0.00002236        0.00000977        0.00000989        0.00000802
     171         -1.005253        2.000000        0.00000599        0.00000222        0.00000125        0.00000228
     172         -1.003239        2.000000        0.00000665        0.00000584        0.00001116        0.00000650
     173         -1.002083        2.000000        0.00004231        0.00002719        0.00002792        0.00001455
     174         -0.995323        2.000000        0.00370225        0.00123649        0.00011638        0.00195764
     175         -0.992784        2.000000        0.05029826        0.00625299        0.00176070        0.00188575
     176         -0.991439        2.000000        0.00001499        0.00000636        0.00000340        0.00000745
     177         -0.988809        2.000000        0.01129833        0.00258453        0.00076879        0.00359644
     178         -0.987272        2.000000        0.00012571        0.00002908        0.00001213        0.00002987
     179         -0.985179        2.000000        0.00076689        0.00014706        0.00001771        0.00011935
     180         -0.985121        2.000000        0.00561697        0.00103156        0.00015899        0.00087575
     181         -0.982602        2.000000        0.01553999        0.00630359        0.00004364        0.00260499
     182         -0.981188        2.000000        0.00006488        0.00002448        0.00000798        0.00001460
     183         -0.980210        2.000000        0.00256325        0.00074239        0.00025178        0.00124121
     184         -0.975583        2.000000        0.00001365        0.00000824        0.00000775        0.00000718
     185         -0.975405        2.000000        0.00229048        0.00229532        0.00076716        0.00217470
     186         -0.973706        2.000000        0.00165407        0.00050785        0.00053687        0.00071243
     187         -0.972918        2.000000        0.00001571        0.00000560        0.00001008        0.00000894
     188         -0.972616        2.000000        0.00005983        0.00001829        0.00000705        0.00004049
     189         -0.971759        2.000000        0.00444395        0.00094587        0.00017350        0.00370300
     190         -0.968675        2.000000        0.00000710        0.00000454        0.00000298        0.00000279
     191         -0.964513        2.000000        0.00003310        0.00000785        0.00000179        0.00000584
     192         -0.962747        2.000000        0.00130277        0.00059857        0.00209094        0.00243481
     193         -0.961085        2.000000        0.00000902        0.00000553        0.00000642        0.00000386
     194         -0.961043        2.000000        0.00520428        0.00198028        0.00047463        0.00264263
     195         -0.958665        2.000000        0.03454923        0.00260052        0.00098811        0.00688689
     196         -0.954330        2.000000        0.01627697        0.00143930        0.00057109        0.00579932
     197         -0.950081        2.000000        0.00000358        0.00000113        0.00000107        0.00000129
     198         -0.949413        2.000000        0.00495677        0.00118708        0.00032899        0.00244923
     199         -0.946330        2.000000        0.00003511        0.00002233        0.00003183        0.00003450
     200         -0.944677        2.000000        0.00787252        0.00286484        0.00043013        0.00138253
     201         -0.940869        2.000000        0.09407558        0.00555317        0.00168487        0.00068676
     202         -0.940565        2.000000        0.02136363        0.00212413        0.00025848        0.00037004
     203         -0.939918        2.000000        0.08402771        0.00630497        0.00131888        0.00078295
     204         -0.935734        2.000000        0.00033870        0.00006304        0.00001271        0.00001655
     205         -0.934368        2.000000        0.00000422        0.00000347        0.00000026        0.00000143
     206         -0.933827        2.000000        0.02448235        0.01281114        0.00010082        0.00210216
     207         -0.932729        2.000000        0.01106560        0.00063678        0.00029440        0.00939644
     208         -0.931273        2.000000        0.00191165        0.00091242        0.00001889        0.00009373
     209         -0.930104        2.000000        0.02068055        0.00856468        0.00014454        0.00104232
     210         -0.928631        2.000000        0.00010580        0.00001821        0.00001091        0.00005724
     211         -0.926156        2.000000        0.01768373        0.00106411        0.00053913        0.00128971
     212         -0.925262        2.000000        0.01734868        0.00215389        0.00029247        0.01182084
     213         -0.921742        2.000000        0.00013943        0.00002804        0.00000909        0.00008671
     214         -0.918979        2.000000        0.00000239        0.00000150        0.00000195        0.00000157
     215         -0.917613        2.000000        0.00409716        0.00164863        0.00016112        0.00115522
     216         -0.913246        2.000000        0.00675050        0.00121889        0.00016217        0.00288876
     217         -0.913180        2.000000        0.00991845        0.00266388        0.00030041        0.00468050
     218         -0.912539        2.000000        0.00062070        0.00018533        0.00003025        0.00023904
     219         -0.910409        2.000000        0.00004159        0.00000758        0.00000265        0.00001270
     220         -0.908186        2.000000        0.00463025        0.00058053        0.00019083        0.00266268
     221         -0.907107        2.000000        0.01027172        0.00092448        0.00020642        0.00534942
     222         -0.904371        2.000000        0.00188234        0.00054065        0.00014618        0.00021623
     223         -0.901495        2.000000        0.03164159        0.00448063        0.00080788        0.00445786
     224         -0.900206        2.000000        0.00007136        0.00000739        0.00000228        0.00003946
     225         -0.898879        2.000000        0.03142646        0.00312436        0.00060747        0.01258059
     226         -0.894817        2.000000        0.01087913        0.00508102        0.00066290        0.00326234
     227         -0.894665        2.000000        0.02070280        0.00808530        0.00016206        0.00277785
     228         -0.892734        2.000000        0.00021185        0.00006470        0.00000880        0.00002503
     229         -0.892620        2.000000        0.00006546        0.00002180        0.00000633        0.00001839
     230         -0.890461        2.000000        0.00011436        0.00003291        0.00001172        0.00003359
     231         -0.889783        2.000000        0.01167659        0.00478243        0.00048630        0.00425801
     232         -0.889023        2.000000        0.00009195        0.00003019        0.00001122        0.00004628
     233         -0.888594        2.000000        0.03873915        0.01592299        0.00046664        0.00474670
     234         -0.886737        2.000000        0.01430093        0.00317888        0.00024765        0.00457963
     235         -0.882442        2.000000        0.04350202        0.01334666        0.00047452        0.00449504
     236         -0.878181        2.000000        0.01515061        0.00569274        0.00034839        0.00589154
     237         -0.876652        2.000000        0.12472830        0.00667271        0.00201150        0.00094076
     238         -0.874815        2.000000        0.00409261        0.00030546        0.00004558        0.00030732
     239         -0.874106        2.000000        0.00022056        0.00003094        0.00000245        0.00000699
     240         -0.873511        2.000000        0.02508429        0.00271570        0.00025695        0.00364933
     241         -0.872964        2.000000        0.02578910        0.00267983        0.00021121        0.00317196
     242         -0.868026        2.000000        0.00024114        0.00002320        0.00000616        0.00001257
     243         -0.867915        2.000000        0.00524640        0.00119174        0.00026240        0.00174543
     244         -0.865449        2.000000        0.00006356        0.00001227        0.00000652        0.00001072
     245         -0.864727        2.000000        0.01206760        0.00209199        0.00010625        0.00358031
     246         -0.864036        2.000000        0.00019528        0.00002543        0.00000465        0.00002498
     247         -0.861996        2.000000        0.02409927        0.00318087        0.00062685        0.00549424
     248         -0.861111        2.000000        0.00034990        0.00007680        0.00009656        0.00017619
     249         -0.859384        2.000000        0.01393803        0.00239513        0.00103130        0.00789096
     250         -0.857744        2.000000        0.05651500        0.00309785        0.00099176        0.00727334
     251         -0.857266        2.000000        0.00009313        0.00000900        0.00001429        0.00001165
     252         -0.856868        2.000000        0.00001923        0.00000329        0.00001186        0.00000750
     253         -0.852184        2.000000        0.07834422        0.00269344        0.00172760        0.00103213
     254         -0.849786        2.000000        0.00004754        0.00000381        0.00000387        0.00000687
     255         -0.847596        2.000000        0.00184084        0.00084519        0.00278219        0.00090120
     256         -0.845951        2.000000        0.00803302        0.00126649        0.00053734        0.00229074
     257         -0.845231        2.000000        0.00008400        0.00002615        0.00009047        0.00004022
     258         -0.842314        2.000000        0.01484905        0.00182421        0.00065859        0.00531955
     259         -0.840169        2.000000        0.00105969        0.00016360        0.00011186        0.00041223