# Projected DOS for atomic kind N at iteration step i = 0, E(Fermi) =    -0.385741 a.u.
#     MO Eigenvalue [a.u.]      Occupation                 s                py                pz                px               d-2               d-1                d0               d+1               d+2
       1         -1.938319        2.000000        0.00001494        0.00000045        0.00000465        0.00000014        0.00000002        0.00000011        0.00000048        0.00000005        0.00000003
       2         -1.862902        2.000000        0.00000085        0.00000029        0.00000011        0.00000022        0.00000000        0.00000001        0.00000001        0.00000001        0.00000002
       3         -1.787366        2.000000        0.00002311        0.00000066        0.00000885        0.00000045        0.00000005        0.00000022        0.00000122        0.00000030        0.00000006
       4         -1.760470        2.000000        0.00000647        0.00000225        0.00000384        0.00000044        0.00000008        0.00000073        0.00000238        0.00000035        0.00000006
       5         -1.750553        2.000000        0.00001041        0.00000136        0.00000722        0.00000043        0.00000009        0.00000069        0.00000184        0.00000040        0.00000007
       6         -1.716060        2.000000        0.00000073        0.00000025        0.00000059        0.00000051        0.00000003        0.00000010        0.00000044        0.00000023        0.00000001
       7         -1.698967        2.000000        0.00000005        0.00000007        0.00000011        0.00000010        0.00000001        0.00000001        0.00000000        0.00000001        0.00000001
       8         -1.688243        2.000000        0.27325246        0.02497188        0.03623943        0.02793814        0.00021523        0.00098407        0.00233327        0.00166213        0.00017775
       9         -1.673900        2.000000        0.00003001        0.00000364        0.00002632        0.00000166        0.00000022        0.00000176        0.00000487        0.00000076        0.00000031
      10         -1.668794        2.000000        0.00000217        0.00000125        0.00000393        0.00000034        0.00000003        0.00000026        0.00000089        0.00000025        0.00000005
      11         -1.654763        2.000000        0.00000581        0.00000133        0.00000438        0.00000148        0.00000004        0.00000046        0.00000074        0.00000016        0.00000008
      12         -1.650100        2.000000        0.00000020        0.00000024        0.00000041        0.00000013        0.00000001        0.00000002        0.00000001        0.00000001        0.00000001
      13         -1.647306        2.000000        0.23434200        0.03227022        0.04349380        0.04263669        0.00073245        0.00132960        0.00249633        0.00132613        0.00176784
      14         -1.644838        2.000000        0.00028317        0.00003811        0.00006313        0.00004675        0.00000136        0.00000376        0.00001087        0.00000236        0.00000221
      15         -1.632977        2.000000        0.00000291        0.00000041        0.00000180        0.00000027        0.00000007        0.00000036        0.00000048        0.00000015        0.00000004
      16         -1.608187        2.000000        0.00005021        0.00001300        0.00001150        0.00000916        0.00000021        0.00000075        0.00000096        0.00000020        0.00000063
      17         -1.600469        2.000000        0.26910241        0.05038726        0.03455330        0.04801373        0.00142309        0.00369046        0.00273976        0.00073385        0.00331524
      18         -1.596008        2.000000        0.00006208        0.00001038        0.00001870        0.00000772        0.00000038        0.00000141        0.00000244        0.00000088        0.00000098
      19         -1.579253        2.000000        0.00000308        0.00000063        0.00000165        0.00000016        0.00000001        0.00000008        0.00000028        0.00000017        0.00000002
      20         -1.561809        2.000000        0.35587403        0.03314376        0.03861361        0.03392867        0.00043316        0.00030642        0.00404361        0.00025550        0.00033728
      21         -1.551575        2.000000        0.00001576        0.00000378        0.00002225        0.00000192        0.00000029        0.00000064        0.00000067        0.00000081        0.00000035
      22         -1.542877        2.000000        0.00001128        0.00000099        0.00000261        0.00000219        0.00000020        0.00000016        0.00000018        0.00000021        0.00000010
      23         -1.540816        2.000000        0.00000578        0.00000042        0.00000534        0.00000073        0.00000004        0.00000020        0.00000089        0.00000016        0.00000007
      24         -1.527268        2.000000        0.16941113        0.02305412        0.00888199        0.05032617        0.00141002        0.00039976        0.00100085        0.00043591        0.00115044
      25         -1.526421        2.000000        0.00192496        0.00027003        0.00009693        0.00058864        0.00001553        0.00000485        0.00001594        0.00000523        0.00001236
      26         -1.517560        2.000000        0.00002553        0.00000731        0.00001927        0.00000627        0.00000016        0.00000037        0.00000044        0.00000045        0.00000031
      27         -1.515596        2.000000        0.00000084        0.00000018        0.00000019        0.00000020        0.00000001        0.00000002        0.00000001        0.00000000        0.00000001
      28         -1.511026        2.000000        0.30844874        0.04315990        0.05116609        0.02610943        0.00190319        0.00062670        0.00175196        0.00037735        0.00192392
      29         -1.504242        2.000000        0.00000627        0.00000144        0.00000714        0.00000180        0.00000004        0.00000027        0.00000154        0.00000022        0.00000009
      30         -1.491786        2.000000        0.00002489        0.00000572        0.00000721        0.00000983        0.00000019        0.00000032        0.00000172        0.00000025        0.00000013
      31         -1.486670        2.000000        0.00000017        0.00000006        0.00000010        0.00000009        0.00000001        0.00000001        0.00000001        0.00000001        0.00000001
      32         -1.483617        2.000000        0.20512613        0.05720459        0.00677306        0.14080934        0.00208832        0.00355008        0.00391969        0.00244896        0.00140786
      33         -1.475582        2.000000        0.00001916        0.00000341        0.00000419        0.00001021        0.00000011        0.00000047        0.00000070        0.00000023        0.00000019
      34         -1.463065        2.000000        0.00000185        0.00000139        0.00000243        0.00000081        0.00000005        0.00000004        0.00000031        0.00000006        0.00000006
      35         -1.457717        2.000000        0.02595853        0.02211968        0.00075087        0.02739947        0.00027341        0.00045055        0.00055289        0.00105994        0.00046709
      36         -1.457219        2.000000        0.00000922        0.00000851        0.00000040        0.00000959        0.00000014        0.00000016        0.00000021        0.00000050        0.00000023
      37         -1.450994        2.000000        0.00034636        0.00009143        0.00008775        0.00008414        0.00000340        0.00000469        0.00000217        0.00000279        0.00000144
      38         -1.449793        2.000000        0.18878375        0.04491690        0.03702789        0.04721790        0.00173088        0.00194588        0.00094649        0.00115358        0.00075136
      39         -1.449116        2.000000        0.11272025        0.19993939        0.00962078        0.04413151        0.00119953        0.00479466        0.00290803        0.00257578        0.00341027
      40         -1.433075        2.000000        0.00000387        0.00000185        0.00000977        0.00000097        0.00000009        0.00000029        0.00000061        0.00000026        0.00000009
      41         -1.430922        2.000000        0.00000221        0.00000138        0.00000343        0.00000086        0.00000002        0.00000013        0.00000038        0.00000020        0.00000005
      42         -1.411596        2.000000        0.00000626        0.00000526        0.00000243        0.00000223        0.00000015        0.00000019        0.00000008        0.00000009        0.00000013
      43         -1.411371        2.000000        0.00001580        0.00001248        0.00000550        0.00000593        0.00000027        0.00000040        0.00000014        0.00000017        0.00000036
      44         -1.405428        2.000000        0.00003226        0.00001133        0.00001325        0.00000849        0.00000045        0.00000053        0.00000146        0.00000053        0.00000057
      45         -1.404711        2.000000        0.00000031        0.00000035        0.00000034        0.00000015        0.00000001        0.00000004        0.00000004        0.00000002        0.00000003
      46         -1.402839        2.000000        0.09185800        0.07651860        0.00591667        0.05108225        0.00286456        0.00262083        0.00135529        0.00067211        0.00342465
      47         -1.399773        2.000000        0.00001068        0.00000929        0.00000787        0.00000794        0.00000036        0.00000057        0.00000122        0.00000063        0.00000041
      48         -1.389989        2.000000        0.00000638        0.00000129        0.00001203        0.00000344        0.00000005        0.00000033        0.00000097        0.00000032        0.00000008
      49         -1.381424        2.000000        0.00001565        0.00000514        0.00003329        0.00000766        0.00000011        0.00000054        0.00000311        0.00000130        0.00000037
      50         -1.370611        2.000000        0.08688767        0.13811456        0.01699176        0.09866044        0.00349398        0.00178467        0.00114534        0.00144987        0.00216869
      51         -1.369418        2.000000        0.00000427        0.00000283        0.00000054        0.00000333        0.00000006        0.00000009        0.00000006        0.00000008        0.00000005
      52         -1.368878        2.000000        0.13954471        0.09361726        0.01313208        0.12069149        0.00150913        0.00327337        0.00242346        0.00296783        0.00149016
      53         -1.366661        2.000000        0.10922287        0.05512351        0.00352674        0.04420793        0.00424772        0.00038364        0.00111592        0.00142983        0.00201524
      54         -1.366388        2.000000        0.02927735        0.01468353        0.00084717        0.01202234        0.00112289        0.00009956        0.00029285        0.00039323        0.00054216
      55         -1.359278        2.000000        0.00000991        0.00000447        0.00000574        0.00000594        0.00000014        0.00000023        0.00000053        0.00000033        0.00000021
      56         -1.355801        2.000000        0.00001123        0.00000227        0.00001835        0.00000351        0.00000006        0.00000030        0.00000136        0.00000075        0.00000019
      57         -1.343376        2.000000        0.30437527        0.02461514        0.02864730        0.02254484        0.00013784        0.00584694        0.00047194        0.00029837        0.00135628
      58         -1.341647        2.000000        0.00000314        0.00000255        0.00001019        0.00000165        0.00000010        0.00000032        0.00000064        0.00000034        0.00000011
      59         -1.338020        2.000000        0.00000306        0.00000177        0.00000360        0.00000073        0.00000006        0.00000006        0.00000022        0.00000016        0.00000008
      60         -1.334641        2.000000        0.00000572        0.00000315        0.00000781        0.00000273        0.00000008        0.00000028        0.00000090        0.00000047        0.00000019
      61         -1.332833        2.000000        0.09481298        0.02325878        0.00905485        0.03096736        0.00127066        0.00081164        0.00061542        0.00079556        0.00039784
      62         -1.329839        2.000000        0.00005675        0.00001302        0.00001203        0.00002130        0.00000072        0.00000052        0.00000069        0.00000071        0.00000045
      63         -1.328736        2.000000        0.13028262        0.05967819        0.00393526        0.04329370        0.00332545        0.00096476        0.00036518        0.00151175        0.00358918
      64         -1.322166        2.000000        0.00002774        0.00001554        0.00001885        0.00001955        0.00000022        0.00000065        0.00000120        0.00000114        0.00000047
      65         -1.319099        2.000000        0.00068414        0.00055365        0.00001937        0.00045459        0.00000355        0.00001296        0.00001403        0.00001905        0.00001489
      66         -1.318530        2.000000        0.16759895        0.12845438        0.00402110        0.11017242        0.00093756        0.00307691        0.00323074        0.00444260        0.00343144
      67         -1.313554        2.000000        0.01011498        0.02930882        0.00165801        0.05817386        0.00201996        0.00208699        0.00012808        0.00218314        0.00341193
      68         -1.304227        2.000000        0.00000276        0.00000255        0.00000045        0.00000081        0.00000005        0.00000008        0.00000006        0.00000002        0.00000007
      69         -1.297981        2.000000        0.00000489        0.00000503        0.00000368        0.00000490        0.00000016        0.00000017        0.00000048        0.00000041        0.00000016
      70         -1.297813        2.000000        0.00004328        0.00005144        0.00002867        0.00001380        0.00000109        0.00000208        0.00000070        0.00000056        0.00000082
      71         -1.294085        2.000000        0.00016367        0.00034791        0.00005377        0.00010206        0.00000349        0.00000688        0.00000176        0.00000163        0.00000430
      72         -1.292388        2.000000        0.05183251        0.12429539        0.00749430        0.04770761        0.00084239        0.00210910        0.00109452        0.00062036        0.00117803
      73         -1.290830        2.000000        0.00000800        0.00002025        0.00000142        0.00000950        0.00000013        0.00000045        0.00000025        0.00000017        0.00000029
      74         -1.288309        2.000000        0.02902090        0.03895585        0.00705605        0.04364109        0.00191739        0.00132024        0.00043087        0.00151769        0.00147612
      75         -1.277639        2.000000        0.00000096        0.00000179        0.00000046        0.00000219        0.00000011        0.00000007        0.00000002        0.00000008        0.00000010
      76         -1.274738        2.000000        0.00000232        0.00000175        0.00000290        0.00000224        0.00000013        0.00000006        0.00000013        0.00000012        0.00000016
      77         -1.269189        2.000000        0.17707912        0.08847138        0.01018701        0.10475083        0.00499792        0.00138573        0.00233086        0.00165515        0.00420718
      78         -1.267935        2.000000        0.05432114        0.06867129        0.00339989        0.19997302        0.00738308        0.00136907        0.00042705        0.00512460        0.00600303
      79         -1.267034        2.000000        0.00010349        0.00011816        0.00000632        0.00035267        0.00001298        0.00000228        0.00000085        0.00000901        0.00001047
      80         -1.265208        2.000000        0.00001693        0.00000951        0.00000614        0.00001995        0.00000069        0.00000042        0.00000047        0.00000066        0.00000098
      81         -1.262568        2.000000        0.00002708        0.00000796        0.00001023        0.00002349        0.00000073        0.00000024        0.00000115        0.00000057        0.00000066
      82         -1.251159        2.000000        0.00000277        0.00000151        0.00001114        0.00000271        0.00000018        0.00000011        0.00000032        0.00000018        0.00000018
      83         -1.250997        2.000000        0.00000325        0.00000207        0.00000114        0.00000552        0.00000027        0.00000007        0.00000003        0.00000020        0.00000019
      84         -1.239584        2.000000        0.00000609        0.00000259        0.00000777        0.00000412        0.00000027        0.00000029        0.00000034        0.00000022        0.00000032
      85         -1.232840        2.000000        0.00001533        0.00001132        0.00001036        0.00001601        0.00000029        0.00000080        0.00000098        0.00000077        0.00000079
      86         -1.230561        2.000000        0.00001028        0.00001017        0.00000193        0.00001086        0.00000041        0.00000025        0.00000013        0.00000038        0.00000064
      87         -1.229643        2.000000        0.00071640        0.00025049        0.00004180        0.00042921        0.00001282        0.00000449        0.00000784        0.00001292        0.00002054
      88         -1.229159        2.000000        0.16387736        0.02659210        0.00581301        0.08304842        0.00226245        0.00081599        0.00200013        0.00253680        0.00436330
      89         -1.228661        2.000000        0.07595449        0.10353096        0.01892791        0.08808971        0.00459881        0.00194176        0.00059105        0.00214496        0.00498056
      90         -1.226682        2.000000        0.06801362        0.07364563        0.00717798        0.05188180        0.00100645        0.00207791        0.00070479        0.00205853        0.00287707
      91         -1.221222        2.000000        0.00000814        0.00001166        0.00000692        0.00000636        0.00000038        0.00000045        0.00000031        0.00000032        0.00000107
      92         -1.216161        2.000000        0.05474487        0.11810213        0.01357228        0.01453560        0.00051446        0.00167583        0.00078680        0.00046001        0.00621624
      93         -1.211891        2.000000        0.05008940        0.06950384        0.00307494        0.04984301        0.00278641        0.00347724        0.00015075        0.00134163        0.00270005
      94         -1.210562        2.000000        0.00006770        0.00024799        0.00004279        0.00002416        0.00000278        0.00000214        0.00000223        0.00000058        0.00000826
      95         -1.208645        2.000000        0.04463713        0.11280983        0.03254308        0.04662414        0.00414676        0.00055922        0.00138024        0.00016422        0.00322901
      96         -1.207307        2.000000        0.00000667        0.00001328        0.00000789        0.00001764        0.00000087        0.00000107        0.00000065        0.00000081        0.00000098
      97         -1.202459        2.000000        0.00001059        0.00001210        0.00000471        0.00002811        0.00000198        0.00000044        0.00000011        0.00000014        0.00000045
      98         -1.195712        2.000000        0.02828809        0.09525155        0.01258390        0.12972142        0.00783349        0.00260280        0.00040136        0.00079185        0.00338766
      99         -1.194324        2.000000        0.00001166        0.00004415        0.00001058        0.00005253        0.00000289        0.00000126        0.00000039        0.00000114        0.00000141
     100         -1.189578        2.000000        0.00000751        0.00000318        0.00002732        0.00000505        0.00000020        0.00000034        0.00000062        0.00000043        0.00000028
     101         -1.183127        2.000000        0.00000392        0.00000243        0.00001341        0.00000376        0.00000012        0.00000027        0.00000036        0.00000024        0.00000018
     102         -1.173548        2.000000        0.00003835        0.00013612        0.00002212        0.00009730        0.00000930        0.00000816        0.00000121        0.00000349        0.00000682
     103         -1.172729        2.000000        0.00207984        0.00877501        0.00011916        0.00622534        0.00057517        0.00041807        0.00001067        0.00019555        0.00038914
     104         -1.172606        2.000000        0.02337609        0.09763482        0.00132303        0.06891447        0.00639593        0.00466867        0.00011924        0.00216063        0.00429830
     105         -1.170343        2.000000        0.00000425        0.00001443        0.00000139        0.00000888        0.00000079        0.00000043        0.00000003        0.00000024        0.00000080
     106         -1.167028        2.000000        0.02130140        0.05970020        0.00982258        0.03014327        0.00249993        0.00093694        0.00016728        0.00064826        0.00378737
     107         -1.165007        2.000000        0.00000517        0.00001215        0.00000895        0.00000837        0.00000051        0.00000067        0.00000048        0.00000029        0.00000059
     108         -1.159019        2.000000        0.00000215        0.00000368        0.00000053        0.00000218        0.00000035        0.00000014        0.00000002        0.00000007        0.00000015
     109         -1.155939        2.000000        0.00000612        0.00000781        0.00000317        0.00000737        0.00000062        0.00000014        0.00000031        0.00000022        0.00000022
     110         -1.151812        2.000000        0.00000312        0.00000261        0.00000859        0.00000367        0.00000041        0.00000031        0.00000040        0.00000029        0.00000032
     111         -1.147581        2.000000        0.00004573        0.00011897        0.00002624        0.00007945        0.00001131        0.00000261        0.00000046        0.00000072        0.00000189
     112         -1.145957        2.000000        0.02071579        0.06647819        0.00492817        0.03438232        0.00630642        0.00129320        0.00006859        0.00033371        0.00069455
     113         -1.143274        2.000000        0.00000458        0.00000627        0.00000061        0.00000430        0.00000063        0.00000024        0.00000003        0.00000006        0.00000013
     114         -1.140711        2.000000        0.04039087        0.04301219        0.00345897        0.02558693        0.00299466        0.00145808        0.00015092        0.00042028        0.00078451
     115         -1.136265        2.000000        0.09238614        0.03134776        0.01696051        0.02753426        0.00006642        0.00025496        0.00078551        0.00273063        0.00054651
     116         -1.135055        2.000000        0.00000334        0.00000768        0.00000371        0.00000265        0.00000026        0.00000061        0.00000040        0.00000022        0.00000071
     117         -1.134521        2.000000        0.00282121        0.04049556        0.01340394        0.03281244        0.00210549        0.00024234        0.00006491        0.00022431        0.00195349
     118         -1.134298        2.000000        0.00028142        0.00362833        0.00127080        0.00308958        0.00018834        0.00002435        0.00000687        0.00002012        0.00018389
     119         -1.129481        2.000000        0.00000921        0.00001433        0.00000201        0.00000436        0.00000055        0.00000088        0.00000016        0.00000016        0.00000082
     120         -1.125913        2.000000        0.00628881        0.02862991        0.02227122        0.06753015        0.00160222        0.00044872        0.00017568        0.00009363        0.00463347
     121         -1.125230        2.000000        0.00002628        0.00009110        0.00007708        0.00019825        0.00000385        0.00000272        0.00000127        0.00000035        0.00001320
     122         -1.124472        2.000000        0.03747692        0.06472529        0.00628962        0.01142692        0.00128202        0.00402819        0.00070287        0.00022965        0.00673102
     123         -1.119119        2.000000        0.13112725        0.05994848        0.00931822        0.24883514        0.00506964        0.00117294        0.00085366        0.00442904        0.00507821
     124         -1.117419        2.000000        0.00000782        0.00000587        0.00001055        0.00001444        0.00000048        0.00000048        0.00000057        0.00000101        0.00000079
     125         -1.114570        2.000000        0.00000543        0.00000332        0.00000540        0.00000494        0.00000032        0.00000019        0.00000036        0.00000016        0.00000032
     126         -1.112764        2.000000        0.00000086        0.00000323        0.00000119        0.00000064        0.00000009        0.00000013        0.00000014        0.00000007        0.00000013
     127         -1.111715        2.000000        0.02483694        0.12921377        0.02814003        0.00905064        0.00279211        0.00243116        0.00042173        0.00041334        0.00251183
     128         -1.107248        2.000000        0.10370772        0.07774315        0.02778120        0.01343085        0.00107873        0.00094522        0.00115184        0.00063196        0.00072961
     129         -1.107180        2.000000        0.00002558        0.00002002        0.00000685        0.00000517        0.00000034        0.00000028        0.00000036        0.00000019        0.00000023
     130         -1.106787        2.000000        0.00000590        0.00000500        0.00001639        0.00000335        0.00000023        0.00000030        0.00000032        0.00000022        0.00000024
     131         -1.103909        2.000000        0.01156929        0.00876509        0.00276366        0.05953244        0.00120744        0.00022444        0.00010240        0.00100199        0.00114743
     132         -1.101577        2.000000        0.00000076        0.00000103        0.00000056        0.00000056        0.00000009        0.00000010        0.00000010        0.00000005        0.00000011
     133         -1.099224        2.000000        0.00000144        0.00000140        0.00000414        0.00000205        0.00000020        0.00000021        0.00000024        0.00000019        0.00000023
     134         -1.092399        2.000000        0.00490009        0.06218121        0.01001289        0.09969469        0.00421759        0.00081612        0.00030312        0.00059468        0.00094973
     135         -1.090571        2.000000        0.00001277        0.00004522        0.00001683        0.00007335        0.00000474        0.00000052        0.00000118        0.00000109        0.00000149
     136         -1.086617        2.000000        0.00394297        0.00383637        0.01660510        0.04175096        0.00195755        0.00042859        0.00021509        0.00026279        0.00288526
     137         -1.084489        2.000000        0.00000040        0.00000090        0.00000058        0.00000126        0.00000010        0.00000008        0.00000019        0.00000020        0.00000021
     138         -1.078939        2.000000        0.00056675        0.00237443        0.00054703        0.00110526        0.00009498        0.00000599        0.00004254        0.00000681        0.00015317
     139         -1.077769        2.000000        0.01813491        0.08063456        0.01812955        0.03512872        0.00317406        0.00013755        0.00125226        0.00021862        0.00521400
     140         -1.075998        2.000000        0.00002235        0.00009160        0.00002545        0.00004145        0.00000373        0.00000035        0.00000110        0.00000046        0.00000659
     141         -1.075125        2.000000        0.01666039        0.05170245        0.01077957        0.01631947        0.00185067        0.00049102        0.00031622        0.00079244        0.00175926
     142         -1.072371        2.000000        0.12655778        0.02956131        0.01264193        0.14608226        0.00185689        0.00043600        0.00167474        0.00486082        0.00087953
     143         -1.071677        2.000000        0.00002691        0.00011383        0.00002160        0.00003598        0.00000437        0.00000023        0.00000107        0.00000065        0.00000658
     144         -1.068224        2.000000        0.00000863        0.00003593        0.00000607        0.00000801        0.00000165        0.00000025        0.00000035        0.00000016        0.00000190