      66
 i =     4981, time =     4981.000, E =     -1832.3292874605
 cd        18.2533020140       17.5045377763       15.5410902616
 cd        15.0533709282       18.3783019114       17.9176758274
 cd        15.1348975158       13.8903207825       19.9272453714
 cd        15.4056329116       10.8174165469       19.0313173499
 cd        11.7543146508       11.7190877804       18.8946771767
 cd         9.1489013434       10.5815344709       17.1373028605
 cd         9.3806610607       14.9392390255       17.6615104025
 cd         8.6399889815       16.0900090293       13.4993172077
 cd         9.7313714569       17.1265132917       10.0613515476
 cd        11.9660080160       14.5076967881        7.7575878285
 cd        15.1467273384       12.7158729290        7.9243266182
 cd        15.8757378586        9.9625565159       10.9186909514
 cd        13.2142224584       13.0011925471       11.2493317871
 cd        12.0432363882       16.6670258399       13.1006671663
 cd        14.0875989978       19.4193254168       10.8686371628
 cd        16.9349088287       18.6894158050       11.7207340361
 cd        14.7538703440       20.0483307242       15.0349746270
 cd        11.3732917179       18.2894029839       16.2590293522
 cd        13.1970832043       15.5218817195       16.8694353795
 cd        10.0870375857       12.8513447353       14.5392881299
 cd         8.4629228774       10.3676089315       12.1582801499
 cd        10.6438325557       10.4968407462        9.6000726086
 cd        15.2752305690        8.4133205270       13.9937123549
 cd        18.1758131968       11.4806318701       13.6039256671
 cd        17.8230878528       13.0219819210       10.5956342563
 cd        14.8493720802       16.3618392967        8.8855794906
 cd        19.5297697507       14.5709073875       13.7535445294
 cd        15.8363696001       15.3633739742       13.5238177823
 cd        17.7932301047       13.9690608212       17.2599296470
 cd        14.2305924811       11.5270537882       15.3011339284
 cd         8.6948396495       14.2807000661       10.1094616326
 cd        12.7125571717        8.4112021674       16.7438208256
 cd        11.7073905649        8.9673210268       12.8319912512
 se        17.0048252270       19.3657368558       16.5577500882
 se        15.5923963437       15.8025835602       18.1662584204
 se        17.4744439671       12.5880490474       19.4534175968
 se        13.6367934517       11.8042338184       20.7996704035
 se        10.8581542010        9.0245879084       18.4430621406
 se         9.2516166211       12.5572140836       19.0772632590
 se         8.0679438059       14.4968020868       15.4457070527
 se         7.3859037816       16.2171279440       11.1548600753
 se         9.6570718883       15.5773717778        7.7720359508
 se        14.3522856837       14.9114587951        6.5796510542
 se        17.0682606444       11.0909038434        8.8237407764
 se        13.8265425383       10.7169431933       12.6078665761
 se        10.8689536097       14.1557187359       12.1920908141
 se        12.4465027169       17.6072641419       10.3818582893
 se        16.1547632630       18.4778862888        9.2811756228
 se        15.4682123049       20.8503507123       12.6173075768
 se        13.0953845297       20.0509407125       17.1477123398
 se        11.0997109357       16.8070221974       18.3426653023
 se        12.3708255975       13.0625075817       16.2120727600
 se         9.5595925864       10.2030370693       14.5693608276
 se        10.2446774977        8.2624044880       10.8950146981
 se        12.5855951867       12.0461683109        8.7281586584
 se        15.0536722884        9.4453865564       16.7993780377
 se        17.5756010274        8.9730865629       12.9776394377
 se        19.9924266849       12.6867451237       12.0838031634
 se        15.5463913498       14.3942690260       10.8452694333
 se        18.2012018718       16.9174435052       13.0356842612
 se        14.1551050638       16.8577811852       14.6208601173
 se        19.8241426189       15.4529662998       16.1806493608
 se        16.5546272570       13.1185405949       14.8922004767
 se        10.0363478449       18.3272205861       13.9694126794
 se         8.2330996060       11.6235952574        9.7704647728
 se        12.9613794504        7.2264151791       14.4246632287
      66
 i =     4982, time =     4982.000, E =     -1832.3290006648
 cd        18.2536234121       17.5036995735       15.5393652527
 cd        15.0525068492       18.3798050723       17.9165082898
 cd        15.1366641634       13.8899326166       19.9262311745
 cd        15.4073795442       10.8161805696       19.0313617139
 cd        11.7535060393       11.7190862198       18.8952346383
 cd         9.1475471648       10.5776761822       17.1389261431
 cd         9.3818492813       14.9381865745       17.6621734268
 cd         8.6402762884       16.0891999081       13.5006919843
 cd         9.7303213495       17.1300534733       10.0616702880
 cd        11.9662836594       14.5076420350        7.7570947999
 cd        15.1469501855       12.7151535376        7.9259016493
 cd        15.8740741581        9.9605127860       10.9187243960
 cd        13.2152124983       13.0025904034       11.2495268377
 cd        12.0422004785       16.6659413370       13.0981368950
 cd        14.0859987846       19.4200504591       10.8684596231
 cd        16.9338114191       18.6885034645       11.7207176313
 cd        14.7551529388       20.0484084785       15.0346758194
 cd        11.3737808768       18.2897773074       16.2617704321
 cd        13.1952508398       15.5201988908       16.8690791544
 cd        10.0876604470       12.8511659701       14.5383528392
 cd         8.4606762370       10.3696787996       12.1575750494
 cd        10.6437041400       10.4971497773        9.5992369063
 cd        15.2736350830        8.4136473985       13.9956074365
 cd        18.1744330566       11.4803983884       13.6048885275
 cd        17.8211968069       13.0216235740       10.5940008944
 cd        14.8516862551       16.3624314938        8.8877128631
 cd        19.5295961820       14.5704088858       13.7525781089
 cd        15.8372798856       15.3620430339       13.5231346157
 cd        17.7925066152       13.9678103117       17.2603383642
 cd        14.2312879002       11.5275242796       15.2985145558
 cd         8.6936555690       14.2815555600       10.1101424747
 cd        12.7123671383        8.4100979833       16.7456154011
 cd        11.7081137606        8.9692211699       12.8299980563
 se        17.0035620697       19.3621342296       16.5558582200
 se        15.5927843093       15.7970787078       18.1651967911
 se        17.4751606119       12.5874952961       19.4552648769
 se        13.6389051637       11.8014809626       20.8003053029
 se        10.8562954153        9.0235465616       18.4432976714
 se         9.2530144787       12.5558574422       19.0814779156
 se         8.0671631230       14.4984902757       15.4447778526
 se         7.3840574245       16.2190224094       11.1548293261
 se         9.6583903739       15.5796054484        7.7718232797
 se        14.3543084816       14.9126074925        6.5785858122
 se        17.0655607850       11.0921947617        8.8258179691
 se        13.8301603523       10.7165190785       12.6056514532
 se        10.8710819560       14.1576044285       12.1943007338
 se        12.4476826462       17.6064307162       10.3799096317
 se        16.1559501414       18.4784291882        9.2845675186
 se        15.4706403881       20.8512789583       12.6184469351
 se        13.0967204854       20.0506340610       17.1452802077
 se        11.0992032557       16.8055448417       18.3436755302
 se        12.3713623944       13.0611644316       16.2112536838
 se         9.5585453825       10.2109331738       14.5678745690
 se        10.2445054832        8.2626010674       10.8942044531
 se        12.5831317459       12.0475317392        8.7267576819
 se        15.0545758064        9.4442737428       16.8003032577
 se        17.5779177798        8.9733231071       12.9783346117
 se        19.9924597061       12.6853346310       12.0830211369
 se        15.5452750183       14.3913633124       10.8461806973
 se        18.1996348336       16.9191435878       13.0342723874
 se        14.1544795018       16.8610342416       14.6222582743
 se        19.8265547368       15.4508650982       16.1813820594
 se        16.5566584268       13.1204890482       14.8924192502
 se        10.0357960497       18.3291330335       13.9695391789
 se         8.2327053466       11.6270875816        9.7698884919
 se        12.9587559199        7.2277148135       14.4234089820
      66
 i =     4983, time =     4983.000, E =     -1832.3287137367
 cd        18.2539629320       17.5028256254       15.5376745370
 cd        15.0516089125       18.3812965094       17.9153420413
 cd        15.1384165516       13.8895246599       19.9252237101
 cd        15.4091341344       10.8149798292       19.0314053216
 cd        11.7526947801       11.7190745628       18.8957892262
 cd         9.1462161545       10.5738732541       17.1406077104
 cd         9.3830609098       14.9371069333       17.6628402536
 cd         8.6405609370       16.0884256098       13.5020751045
 cd         9.7292890792       17.1335802676       10.0619750812
 cd        11.9665548498       14.5075945550        7.7565897936
 cd        15.1471706699       12.7144497776        7.9274718527
 cd        15.8724462630        9.9585065332       10.9187946592
 cd        13.2161601362       13.0039945224       11.2497204364
 cd        12.0411234944       16.6648667250       13.0955685209
 cd        14.0844296688       19.4208303929       10.8683047454
 cd        16.9327055956       18.6876225117       11.7207272160
 cd        14.7564416313       20.0484634879       15.0343766459
 cd        11.3742226027       18.2901591171       16.2644614704
 cd        13.1934074614       15.5185287508       16.8687418311
 cd        10.0882850217       12.8510363268       14.5374221553
 cd         8.4584643229       10.3717473689       12.1568187510
 cd        10.6435660135       10.4974631385        9.5984052679
 cd        15.2720224113        8.4139645632       13.9975284797
 cd        18.1730234643       11.4801388006       13.6058471154
 cd        17.8192982939       13.0212519597       10.5923689442
 cd        14.8539600002       16.3629672462        8.8898247645
 cd        19.5294245216       14.5699390032       13.7516416080
 cd        15.8382442309       15.3606836971       13.5223971703
 cd        17.7917893615       13.9665790422       17.2607343709
 cd        14.2320172182       11.5280109517       15.2958924085
 cd         8.6924999572       14.2823166644       10.1107862031
 cd        12.7120913315        8.4089981969       16.7474223940
 cd        11.7088557457        8.9711070358       12.8280504611
 se        17.0023095223       19.3586778009       16.5539962312
 se        15.5931421223       15.7915712807       18.1641715152
 se        17.4758562484       12.5869124939       19.4570967125
 se        13.6410437610       11.7987708336       20.8008699698
 se        10.8544845463        9.0225177173       18.4435217064
 se         9.2543733358       12.5545166030       19.0856008272
 se         8.0663875150       14.5000979735       15.4438430712
 se         7.3822552118       16.2209994093       11.1548199314
 se         9.6596932459       15.5818315820        7.7716798689
 se        14.3563409895       14.9137302455        6.5776376959
 se        17.0628441403       11.0934876281        8.8279037293
 se        13.8337731178       10.7161020446       12.6034196573
 se        10.8732766418       14.1594820456       12.1965126455
 se        12.4487637816       17.6054876703       10.3779555678
 se        16.1571561234       18.4790632838        9.2878979868
 se        15.4730592765       20.8521581908       12.6195663946
 se        13.0981154969       20.0503474210       17.1428373444
 se        11.0987348583       16.8039820670       18.3446818234
 se        12.3718529661       13.0597953467       16.2104780913
 se         9.5574965152       10.2187990633       14.5663133009
 se        10.2442804197        8.2628343958       10.8933811963
 se        12.5806863036       12.0488904217        8.7253688573
 se        15.0555758514        9.4431952945       16.8012372772
 se        17.5802102425        8.9735653814       12.9789668128
 se        19.9924743065       12.6839189708       12.0822061403
 se        15.5441554632       14.3884951237       10.8471283509
 se        18.1980831910       16.9207760896       13.0328199513
 se        14.1537956150       16.8643336184       14.6236896782
 se        19.8289420453       15.4487391043       16.1821354301
 se        16.5586789329       13.1224051688       14.8926546523
 se        10.0353038872       18.3310157914       13.9696602737
 se         8.2323013635       11.6305784048        9.7693807893
 se        12.9561836286        7.2289887374       14.4221261876
      66
 i =     4984, time =     4984.000, E =     -1832.3284265779
 cd        18.2543229153       17.5019113763       15.5360126665
 cd        15.0506746786       18.3827778485       17.9141740574
 cd        15.1401596240       13.8890942352       19.9242208162
 cd        15.4109025247       10.8138105908       19.0314488126
 cd        11.7518795516       11.7190526159       18.8963434603
 cd         9.1449036748       10.5701136226       17.1423526243
 cd         9.3842988347       14.9359957482       17.6635124764
 cd         8.6408440039       16.0876853554       13.5034696731
 cd         9.7282709251       17.1371045546       10.0622668508
 cd        11.9668228767       14.5075550306        7.7560707425
 cd        15.1473881773       12.7137606628        7.9290414424
 cd        15.8708497687        9.9565308696       10.9189019795
 cd        13.2170676680       13.0054088905       11.2499129796
 cd        12.0400028795       16.6637992815       13.0929551480
 cd        14.0828871379       19.4216683498       10.8681730355
 cd        16.9315875800       18.6867713494       11.7207640733
 cd        14.7577406488       20.0484958816       15.0340750543
 cd        11.3746176238       18.2905491778       16.2671098574
 cd        13.1915478214       15.5168663272       16.8684220399
 cd        10.0889133423       12.8509575600       14.5364933523
 cd         8.4562798110       10.3738216045       12.1560084310
 cd        10.6434171350       10.4977818782        9.5975751196
 cd        15.2703894039        8.4142733876       13.9994809733
 cd        18.1715807184       11.4798524357       13.6068039177
 cd        17.8173878688       13.0208657171       10.5907344506
 cd        14.8562005516       16.3634477997        8.8919214720
 cd        19.5292544208       14.5694962587       13.7507322538
 cd        15.8392632322       15.3592942174       13.5216046106
 cd        17.7910766583       13.9653632046       17.2611194530
 cd        14.2327833961       11.5285148831       15.2932596326
 cd         8.6913689742       14.2829878970       10.1113950380
 cd        12.7117296918        8.4078993951       16.7492471367
 cd        11.7096186406        8.9729850184       12.8261418432
 se        17.0010643984       19.3553576473       16.5521587878
 se        15.5934697388       15.7860486332       18.1631774059
 se        17.4765340453       12.5862981743       19.4589185525
 se        13.6432155896       11.7960949352       20.8013651857
 se        10.8527162075        9.0214970165       18.4437355407
 se         9.2556966864       12.5531877135       19.0896443413
 se         8.0656151202       14.5016290283       15.4429024040
 se         7.3804930354       16.2230645058       11.1548321062
 se         9.6609844020       15.5840575477        7.7716058734
 se        14.3583895162       14.9148298162        6.5768055110
 se        17.0601031635       11.0947844494        8.8300035387
 se        13.8373906397       10.7156910900       12.6011645358
 se        10.8755444459       14.1613572500       12.1987327425
 se        12.4497494729       17.6044326046       10.3759898159
 se        16.1583844709       18.4797903501        9.2911748813
 se        15.4754757716       20.8529906918       12.6206683567
 se        13.0995729737       20.0500814282       17.1403772298
 se        11.0983047823       16.8023294727       18.3456878634
 se        12.3722985967       13.0583956138       16.2097434121
 se         9.5564424560       10.2266572179       14.5646728071
 se        10.2440015164        8.2631059439       10.8925422817
 se        12.5782520064       12.0502485084        8.7239882561
 se        15.0566739128        9.4421477078       16.8021816293
 se        17.5824827271        8.9738132285       12.9795390867
 se        19.9924686688       12.6824941355       12.0813554777
 se        15.5430292161       14.3856570786       10.8481151377
 se        18.1965437317       16.9223437035       13.0313233674
 se        14.1530527892       16.8676863381       14.6251560390
 se        19.8313106096       15.4465823034       16.1829101883
 se        16.5606942337       13.1242943106       14.8929076448
 se        10.0348703232       18.3328736548       13.9697770600
 se         8.2318867159       11.6340775807        9.7689400308
 se        12.9536539543        7.2302414060       14.4208117859
      66
 i =     4985, time =     4985.000, E =     -1832.3281396677
 cd        18.2547046287       17.5009549855       15.5343794710
 cd        15.0497044216       18.3842461983       17.9130048775
 cd        15.1418929244       13.8886398894       19.9232234486
 cd        15.4126851897       10.8126728637       19.0314926682
 cd        11.7510615324       11.7190202125       18.8968981306
 cd         9.1436092207       10.5663970232       17.1441608009
 cd         9.3855622561       14.9348519396       17.6641896300
 cd         8.6411256682       16.0869807962       13.5048745680
 cd         9.7272663558       17.1406263394       10.0625455757
 cd        11.9670881624       14.5075243058        7.7555371257
 cd        15.1476014198       12.7130873652        7.9306098155
 cd        15.8692853565        9.9545851311       10.9190464334
 cd        13.2179343832       13.0068331827       11.2501042749
 cd        12.0388393455       16.6627396104       13.0902976967
 cd        14.0813714558       19.4225650310       10.8680654332
 cd        16.9304569854       18.6859511320       11.7208295046
 cd        14.7590502795       20.0485055670       15.0337699098
 cd        11.3749652522       18.2909470922       16.2697146937
 cd        13.1896723121       15.5152118044       16.8681194704
 cd        10.0895455562       12.8509319734       14.5355665744
 cd         8.4541222580       10.3759020948       12.1551435193
 cd        10.6432568904       10.4981060962        9.5967464439
 cd        15.2687378240        8.4145742566       14.0014645658
 cd        18.1701053975       11.4795393749       13.6077584645
 cd        17.8154669052       13.0204646214       10.5890984746
 cd        14.8584081384       16.3638727441        8.8940027720
 cd        19.5290860735       14.5690806201       13.7498501640
 cd        15.8403346133       15.3578769961       13.5207582685
 cd        17.7903690214       13.9641627946       17.2614941821
 cd        14.2335871989       11.5290357002       15.2906164397
 cd         8.6902623478       14.2835713366       10.1119691892
 cd        12.7112829575        8.4068015683       16.7510893728
 cd        11.7104022878        8.9748556902       12.8242716299
 se        16.9998274106       19.3521745645       16.5503462912
 se        15.5937660102       15.7805149500       18.1622124849
 se        17.4771950158       12.5856516242       19.4607301795
 se        13.6454204065       11.7934531800       20.8017899266
 se        10.8509906399        9.0204832751       18.4439398207
 se         9.2569837656       12.5518710613       19.0936080178
 se         8.0648464320       14.5030822403       15.4419583865
 se         7.3787724714       16.2252172758       11.1548660835
 se         9.6622637080       15.5862838288        7.7716019623
 se        14.3604541586       14.9159055227        6.5760911038
 se        17.0573386329       11.0960832445        8.8321164600
 se        13.8410115841       10.7152865222       12.5988862714
 se        10.8778855091       14.1632298979       12.2009604076
 se        12.4506397231       17.6032659704       10.3740121479
 se        16.1596346771       18.4806102822        9.2943956860
 se        15.4778892411       20.8537760090       12.6217517900
 se        13.1010920715       20.0498376286       17.1379008215
 se        11.0979135990       16.8005873601       18.3466941911
 se        12.3726990038       13.0569646477       16.2090495430
 se         9.5553828480       10.2345057875       14.5629536182
 se        10.2436685875        8.2634165358       10.8916876149
 se        12.5758295426       12.0516059492        8.7226162361
 se        15.0578684697        9.4411307875       16.8031349910
 se        17.5847325084        8.9740657299       12.9800524063
 se        19.9924409057       12.6810605016       12.0804689534
 se        15.5418962777       14.3828506891       10.8491409480
 se        18.1950180286       16.9238440140       13.0297834745
 se        14.1522524173       16.8710893287       14.6266547109
 se        19.8336591737       15.4443951484       16.1837048053
 se        16.5627035500       13.1261558889       14.8931784840
 se        10.0344959039       18.3347056206       13.9698902258
 se         8.2314616739       11.6375842159        9.7685662203
 se        12.9511662651        7.2314733001       14.4194666480
      66
 i =     4986, time =     4986.000, E =     -1832.3278531091
 cd        18.2551092753       17.4999546995       15.5327748336
 cd        15.0486984463       18.3856987073       17.9118350387
 cd        15.1436159729       13.8881601637       19.9222325965
 cd        15.4144825938       10.8115666752       19.0315373550
 cd        11.7502419110       11.7189771847       18.8974540029
 cd         9.1423323094       10.5627232659       17.1460320374
 cd         9.3868503475       14.9336744334       17.6648712129
 cd         8.6414061007       16.0863135955       13.5062886598
 cd         9.7262748464       17.1441455849       10.0628112377
 cd        11.9673510993       14.5075032304        7.7549884408
 cd        15.1478091086       12.7124310558        7.9321763561
 cd        15.8677537508        9.9526686848       10.9192280815
 cd        13.2187595373       13.0082670417       11.2502941361
 cd        12.0376336276       16.6616883371       13.0875971111
 cd        14.0798828127       19.4235210078       10.8679828140
 cd        16.9293134467       18.6851630245       11.7209248247
 cd        14.7603708076       20.0484924448       15.0334600719
 cd        11.3752648236       18.2913524627       16.2722750984
 cd        13.1877813478       15.5135653785       16.8678338187
 cd        10.0901818306       12.8509619434       14.5346419679
 cd         8.4519912632       10.3779893898       12.1542234649
 cd        10.6430846731       10.4984359001        9.5959192384
 cd        15.2670694513        8.4148675493       14.0034788831
 cd        18.1685980994       11.4791997037       13.6087102703
 cd        17.8135367926       13.0200484677       10.5874620999
 cd        14.8605829970       16.3642417431        8.8960684645
 cd        19.5289196860       14.5686920257       13.7489954479
 cd        15.8414560772       15.3564344767       13.5198594825
 cd        17.7896669647       13.9629778080       17.2618591382
 cd        14.2344293721       11.5295730393       15.2879630953
 cd         8.6891798000       14.2840691199       10.1125088845
 cd        12.7107519652        8.4057047451       16.7529487624
 cd        11.7112064916        8.9767195924       12.8224392583
 se        16.9985993811       19.3491293153       16.5485591421
 se        15.5940298050       15.7749744627       18.1612747562
 se        17.4778401865       12.5849721463       19.4625313469
 se        13.6476579181       11.7908455027       20.8021432054
 se        10.8493081094        9.0194753204       18.4441352243
 se         9.2582337800       12.5505669549       19.0974913843
 se         8.0640819602       14.5044563833       15.4410135832
 se         7.3770951836       16.2274572104       11.1549220576
 se         9.6635310041       15.5885108397        7.7716687969
 se        14.3625349907       14.9169566678        6.5754962985
 se        17.0545513696       11.0973819972        8.8342414880
 se        13.8446345204       10.7148886726       12.5965851440
 se        10.8802999230       14.1650997754       12.2031949787
 se        12.4514346721       17.6019883618       10.3720224121
 se        16.1609061362       18.4815228857        9.2975577871
 se        15.4802990399       20.8545137141       12.6228156907
 se        13.1026718277       20.0496175705       17.1354091270
 se        11.0975619107       16.7987560780       18.3477012951
 se        12.3730539383       13.0555018683       16.2083964017
 se         9.5543173223       10.2423426969       14.5611563778
 se        10.2432814718        8.2637669920       10.8908171443
 se        12.5734196262       12.0529626566        8.7212531697
 se        15.0591578896        9.4401442929       16.8040960088
 se        17.5869568284        8.9743219518       12.9805077179
 se        19.9923891223       12.6796184965       12.0795464211
 se        15.5407566931       14.3800775331       10.8502056608
 se        18.1935076781       16.9252746015       13.0282011571
 se        14.1513959301       16.8745394209       14.6281830244
 se        19.8359864701       15.4421781162       16.1845177709
 se        16.5647060802       13.1279892969       14.8934674184
 se        10.0341811525       18.3365106842       13.9700004343
 se         8.2310265111       11.6410973432        9.7682593368
 se        12.9487199673        7.2326848767       14.4180917103
      66
 i =     4987, time =     4987.000, E =     -1832.3275676412
 cd        18.2555373594       17.4989103962       15.5312010575
 cd        15.0476586263       18.3871304233       17.9106668142
 cd        15.1453257144       13.8876543341       19.9212507467
 cd        15.4162925078       10.8104936883       19.0315832451
 cd        11.7494231095       11.7189234352       18.8980109856
 cd         9.1410743696       10.5590976615       17.1479631661
 cd         9.3881603221       14.9324639420       17.6655556647
 cd         8.6416850480       16.0856863829       13.5077086955
 cd         9.7252973294       17.1476569903       10.0630634414
 cd        11.9676116558       14.5074926774        7.7544250432
 cd        15.1480096476       12.7117938631        7.9337381138
 cd        15.8662579692        9.9507837625       10.9194466682
 cd        13.2195411675       13.0097079330       11.2504821017
 cd        12.0363883251       16.6606476632       13.0848584209
 cd        14.0784235068       19.4245352324       10.8679260816
 cd        16.9281583401       18.6844093388       11.7210511818
 cd        14.7617005410       20.0484564460       15.0331448625
 cd        11.3755152989       18.2917642801       16.2747864376
 cd        13.1858781957       15.5119296986       16.8675651902
 cd        10.0908214036       12.8510498163       14.5337210562
 cd         8.4498896197       10.3800808844       12.1532491478
 cd        10.6429001502       10.4987709058        9.5950947443
 cd        15.2653885759        8.4151532067       14.0055205074
 cd        18.1670617161       11.4788340412       13.6096574133
 cd        17.8116018191       13.0196177027       10.5858288726
 cd        14.8627221611       16.3645540451        8.8981153124
 cd        19.5287557231       14.5683309313       13.7481694515
 cd        15.8426235918       15.3549713139       13.5189109869
 cd        17.7889720416       13.9618099874       17.2622143780
 cd        14.2353093459       11.5301257295       15.2853038755
 cd         8.6881226365       14.2844827814       10.1130136071
 cd        12.7101385237        8.4046106249       16.7548220962
 cd        11.7120298071        8.9785744604       12.8206468596
 se        16.9973830510       19.3462270160       16.5468003791
 se        15.5942596397       15.7694397166       18.1603635843
 se        17.4784696447       12.5842601044       19.4643191024
 se        13.6499243890       11.7882757381       20.8024235957
 se        10.8476713442        9.0184734963       18.4443222096
 se         9.2594440772       12.5492776517       19.1012882354
 se         8.0633233612       14.5057482344       15.4400719865
 se         7.3754653593       16.2297803135       11.1550000561
 se         9.6647842404       15.5907356256        7.7718068699
 se        14.3646289507       14.9179809897        6.5750236544
 se        17.0517463976       11.0986767304        8.8363743898
 se        13.8482525597       10.7144984688       12.5942649908
 se        10.8827840606       14.1669638501       12.2054324307
 se        12.4521335302       17.6006025289       10.3700234956
 se        16.1621962234       18.4825264301        9.3006538321
 se        15.4827009391       20.8552023664       12.6238575275
 se        13.1043087597       20.0494230931       17.1329069049
 se        11.0972508378       16.7968388203       18.3487081176
 se        12.3733626942       13.0540089149       16.2077848661
 se         9.5532470566       10.2501539930       14.5592846022
 se        10.2428406630        8.2641575807       10.8899321783
 se        12.5710265682       12.0543165158        8.7199014584
 se        15.0605384234        9.4391893821       16.8050618621
 se        17.5891496078        8.9745805713       12.9809053081
 se        19.9923115049       12.6781707408       12.0785891897