#     Step Nr.          Time[fs]        Kin.[a.u.]          Temp[K]            Pot.[a.u.]        Cons Qty[a.u.]        UsedTime[s]
         0            0.000000         0.591402765       300.000000000       -14.540196403       -13.948793638         0.000000000
        10           25.000000         0.590897035       299.743459043       -14.538677097       -13.948892385         0.012747501
        20           50.000000         0.564966037       286.589480193       -14.513482323       -13.949133498         0.012872665
        30           75.000000         0.512668568       260.060621187       -14.463588983       -13.949440050         0.012846587
        40          100.000000         0.455827465       231.226919054       -14.404903923       -13.949747479         0.012817094
        50          125.000000         0.413214504       209.610706010       -14.358917490       -13.950019096         0.012846363
        60          150.000000         0.393678389       199.700650286       -14.335989815       -13.950245504         0.012801143
        70          175.000000         0.389966732       197.817843449       -14.332460538       -13.950436959         0.012782478
        80          200.000000         0.396262452       201.011463954       -14.337512412       -13.950611816         0.012791716
        90          225.000000         0.399299009       202.551813792       -14.342622098       -13.950792553         0.012799950
       100          250.000000         0.402333924       204.091330266       -14.345389659       -13.950997869         0.013915559
       110          275.000000         0.400661839       203.243134200       -14.345928772       -13.951226355         0.012825144
       120          300.000000         0.400650866       203.237568089       -14.345058398       -13.951463588         0.014326581
       130          325.000000         0.396980893       201.375906514       -14.341707354       -13.951684263         0.012845575
       140          350.000000         0.391853354       198.774867240       -14.336948394       -13.951873551         0.012738293
       150          375.000000         0.388964738       197.309563201       -14.333579827       -13.952028385         0.012871693
       160          400.000000         0.390251574       197.962334849       -14.333724865       -13.952160214         0.012809869
       170          425.000000         0.393515987       199.618268480       -14.335889245       -13.952286896         0.012833268
       180          450.000000         0.394533374       200.134356946       -14.335722464       -13.952409288         0.012841941
       190          475.000000         0.392928143       199.320073791       -14.332743560       -13.952515851         0.012845496
       200          500.000000         0.393307386       199.512452114       -14.331600265       -13.952598102         0.012803067
       210          525.000000         0.395297385       200.521915911       -14.333410960       -13.952642288         0.012805270
       220          550.000000         0.397356538       201.566459343       -14.335695327       -13.952641942         0.012845118
       230          575.000000         0.397296912       201.536213000       -14.338284139       -13.952608678         0.012828492
       240          600.000000         0.399396908       202.601474531       -14.341305589       -13.952553520         0.012833259
       250          625.000000         0.400993710       203.411481959       -14.343313416       -13.952484071         0.012782761
       260          650.000000         0.402044458       203.944493358       -14.343673209       -13.952405743         0.013319434
       270          675.000000         0.400540635       203.181651547       -14.342925630       -13.952324071         0.013058125
       280          700.000000         0.403590341       204.728671075       -14.343917385       -13.952245898         0.012821514
       290          725.000000         0.410931610       208.452665665       -14.348514023       -13.952173660         0.012786029
       300          750.000000         0.415153425       210.594259752       -14.352850516       -13.952096597         0.012769663
       310          775.000000         0.414912477       210.472034352       -14.352229809       -13.952002767         0.012745644
       320          800.000000         0.407843240       206.886033071       -14.346369121       -13.951891200         0.012771098
       330          825.000000         0.401642494       203.740589580       -14.338509208       -13.951767275         0.013592239
       340          850.000000         0.396646009       201.206030185       -14.331888991       -13.951645481         0.012747548
       350          875.000000         0.393494460       199.607348937       -14.327244706       -13.951539462         0.012802675
       360          900.000000         0.389960269       197.814564666       -14.324555465       -13.951459217         0.012756732
       370          925.000000         0.388564635       197.106603878       -14.324849924       -13.951412073         0.013605420
       380          950.000000         0.390402975       198.039135754       -14.326627739       -13.951392871         0.012755654
       390          975.000000         0.393365663       199.542014271       -14.327877816       -13.951392625         0.012811300
       400         1000.000000         0.395264751       200.505361651       -14.329921360       -13.951407907         0.012751893
       410         1025.000000         0.401346884       203.590636254       -14.334003814       -13.951438959         0.012729132
       420         1050.000000         0.402189671       204.018155571       -14.336089909       -13.951474375         0.012785964
       430         1075.000000         0.398951178       202.375370100       -14.333290020       -13.951502977         0.012804172
       440         1100.000000         0.393723221       199.723392040       -14.327819399       -13.951519222         0.012859006
       450         1125.000000         0.388858216       197.255527869       -14.323352877       -13.951518717         0.013557400
       460         1150.000000         0.386667261       196.144125813       -14.322724957       -13.951501473         0.012790672
       470         1175.000000         0.388953475       197.303850045       -14.326262922       -13.951478679         0.012815956
       480         1200.000000         0.392995102       199.354040025       -14.330376387       -13.951460018         0.012779250
       490         1225.000000         0.396711667       201.239336554       -14.332560398       -13.951452382         0.012800221
       500         1250.000000         0.398251363       202.020375773       -14.332896426       -13.951452041         0.012821196
       510         1275.000000         0.399675427       202.742758461       -14.333178646       -13.951452541         0.012835769
       520         1300.000000         0.399829419       202.820873835       -14.333152262       -13.951447718         0.012786668
       530         1325.000000         0.397947494       201.866232825       -14.331777351       -13.951439558         0.012791478
       540         1350.000000         0.395350270       200.548742487       -14.329738094       -13.951439181         0.012784456
       550         1375.000000         0.392786967       199.248459576       -14.327426153       -13.951455330         0.012785866
       560         1400.000000         0.390104155       197.887553925       -14.324265282       -13.951491512         0.012767480
       570         1425.000000         0.385911409       195.760705750       -14.320254313       -13.951544176         0.012805855
       580         1450.000000         0.386258304       195.936674419       -14.319723955       -13.951614012         0.012766856
       590         1475.000000         0.394195479       199.962953529       -14.326059485       -13.951710087         0.012784898
       600         1500.000000         0.398814428       202.306001010       -14.333129250       -13.951830245         0.013154358
       610         1525.000000         0.396256301       201.008343527       -14.333254570       -13.951965231         0.012761568
       620         1550.000000         0.393142120       199.428617897       -14.327440550       -13.952101529         0.012816662
       630         1575.000000         0.387664385       196.649935122       -14.323775797       -13.952229923         0.012724725
       640         1600.000000         0.388972644       197.313573991       -14.324887390       -13.952338383         0.013625725
       650         1625.000000         0.391885032       198.790936336       -14.325616859       -13.952415878         0.012778058
       660         1650.000000         0.392391218       199.047708666       -14.324286702       -13.952463987         0.012817945
       670         1675.000000         0.390832320       198.256929063       -14.324140011       -13.952497781         0.012777937
       680         1700.000000         0.390326060       198.000118940       -14.323849980       -13.952507801         0.012824300
       690         1725.000000         0.396469755       201.116621907       -14.325496882       -13.952497861         0.012817346
       700         1750.000000         0.400896510       203.362175509       -14.328297508       -13.952467387         0.012832028
       710         1775.000000         0.402066232       203.955538509       -14.329197720       -13.952422480         0.012786214
       720         1800.000000         0.401803814       203.822422360       -14.328996312       -13.952377029         0.012818694
       730         1825.000000         0.404849028       205.367163492       -14.330888280       -13.952351563         0.012772132
       740         1850.000000         0.404630848       205.256487553       -14.331030765       -13.952338900         0.012827937
       750         1875.000000         0.400704595       203.264823117       -14.327081923       -13.952330575         0.012831607
       760         1900.000000         0.394293107       200.012477001       -14.322354173       -13.952324292         0.012814125
       770         1925.000000         0.394490896       200.112809270       -14.321302908       -13.952319221         0.012792142
       780         1950.000000         0.400061188       202.938443006       -14.325844079       -13.952319633         0.012832740
       790         1975.000000         0.407241612       206.580846124       -14.333699116       -13.952327038         0.012785960
       800         2000.000000         0.416820491       211.439909521       -14.341585433       -13.952339570         0.012785896
       810         2025.000000         0.425035022       215.606882525       -14.348126212       -13.952353829         0.012869461
       820         2050.000000         0.426935028       216.570696048       -14.352291186       -13.952362037         0.012830073
       830         2075.000000         0.425048406       215.613671996       -14.351795292       -13.952354322         0.012812191
       840         2100.000000         0.418840842       212.464769975       -14.344902557       -13.952320948         0.012841851
       850         2125.000000         0.413594293       209.803360861       -14.337780072       -13.952274748         0.012798965
       860         2150.000000         0.415878908       210.962274206       -14.338416663       -13.952233283         0.012843190
       870         2175.000000         0.428255203       217.240378919       -14.345994385       -13.952202016         0.012812482
       880         2200.000000         0.436095287       221.217406529       -14.351528285       -13.952177707         0.013299537
       890         2225.000000         0.433932337       220.120210511       -14.348124191       -13.952155379         0.012851393
       900         2250.000000         0.424297955       215.232991577       -14.339622698       -13.952135341         0.012817014
       910         2275.000000         0.419872479       212.988087330       -14.335667822       -13.952124235         0.012837974
       920         2300.000000         0.421210565       213.666856141       -14.337638161       -13.952114121         0.012833702
       930         2325.000000         0.427161635       216.685646582       -14.341728698       -13.952103637         0.012855823
       940         2350.000000         0.428441738       217.335002158       -14.344506921       -13.952098218         0.012787700
       950         2375.000000         0.429859505       218.054191128       -14.345462007       -13.952102195         0.013674235
       960         2400.000000         0.429675673       217.960938745       -14.346117309       -13.952120310         0.012785856
       970         2425.000000         0.428305636       217.265962067       -14.345279061       -13.952150520         0.012802151
       980         2450.000000         0.422049819       214.092583323       -14.340072865       -13.952185965         0.012787364
       990         2475.000000         0.415517670       210.779029802       -14.332343017       -13.952231157         0.012809209
      1000         2500.000000         0.411648719       208.816432769       -14.326985627       -13.952299007         0.012854921
      1010         2525.000000         0.409617636       207.786128145       -14.324280252       -13.952390836         0.012802856
      1020         2550.000000         0.406498380       206.203827737       -14.321376577       -13.952494914         0.012800456
      1030         2575.000000         0.406816203       206.365049597       -14.321042922       -13.952607218         0.012855394
      1040         2600.000000         0.413070521       209.537668194       -14.325979138       -13.952721158         0.012811276
      1050         2625.000000         0.419975999       213.040599779       -14.333297959       -13.952819240         0.012835454
      1060         2650.000000         0.427492723       216.853597001       -14.340754510       -13.952891939         0.012833051
      1070         2675.000000         0.433686726       219.995619592       -14.348066669       -13.952936058         0.013901132
      1080         2700.000000         0.441326478       223.871025241       -14.353805202       -13.952951843         0.012843654
      1090         2725.000000         0.445979836       226.231526962       -14.357430368       -13.952945180         0.012849488
      1100         2750.000000         0.449032214       227.779902322       -14.360703892       -13.952926656         0.012803987
      1110         2775.000000         0.454979727       230.796888598       -14.363642100       -13.952902286         0.012792174
      1120         2800.000000         0.453439082       230.015367954       -14.362360739       -13.952869546         0.012791119
      1130         2825.000000         0.449932681       228.236680932       -14.358320527       -13.952839580         0.012881524
      1140         2850.000000         0.446576081       226.533983531       -14.354779097       -13.952822990         0.012805423
      1150         2875.000000         0.443095730       224.768511176       -14.351934505       -13.952815267         0.012846962
      1160         2900.000000         0.442329371       224.379761152       -14.350656674       -13.952814292         0.012809775
      1170         2925.000000         0.443020710       224.730455588       -14.349782154       -13.952811493         0.012832064
      1180         2950.000000         0.440723114       223.564957709       -14.347889142       -13.952798655         0.012785823
      1190         2975.000000         0.437461858       221.910625101       -14.344226243       -13.952774456         0.012840559
      1200         3000.000000         0.434021632       220.165507113       -14.337919963       -13.952741306         0.012831630
      1210         3025.000000         0.428160361       217.192268683       -14.331418374       -13.952711636         0.012858630
      1220         3050.000000         0.423633758       214.896065601       -14.328848035       -13.952695551         0.012807734
      1230         3075.000000         0.422993798       214.571434067       -14.329049387       -13.952684271         0.012812739
      1240         3100.000000         0.422569565       214.356234147       -14.328365822       -13.952663643         0.012830009
      1250         3125.000000         0.421249475       213.686593779       -14.326630342       -13.952628418         0.012829063
      1260         3150.000000         0.420065842       213.086174296       -14.324940655       -13.952578260         0.012810691
      1270         3175.000000         0.417469991       211.769380461       -14.323115218       -13.952519013         0.012846545
      1280         3200.000000         0.416521477       211.288229267       -14.320728981       -13.952463170         0.012949261
      1290         3225.000000         0.413525183       209.768303960       -14.318725933       -13.952422037         0.012826079
      1300         3250.000000         0.414935570       210.483748788       -14.319123216       -13.952404100         0.012794325
      1310         3275.000000         0.417256713       211.661191454       -14.319425687       -13.952403552         0.012899337
      1320         3300.000000         0.415260890       210.648773203       -14.317294003       -13.952410629         0.012773975
      1330         3325.000000         0.410363615       208.164539643       -14.313788283       -13.952418609         0.012895108
      1340         3350.000000         0.406575443       206.242919234       -14.311193416       -13.952424620         0.012810734
      1350         3375.000000         0.408949959       207.447436820       -14.311609536       -13.952431230         0.012813501
      1360         3400.000000         0.414009414       210.013938868       -14.313891845       -13.952440857         0.012835816
      1370         3425.000000         0.417038446       211.550471335       -14.315491086       -13.952453628         0.012820712
      1380         3450.000000         0.417815273       211.944531255       -14.315442024       -13.952467802         0.012782833
      1390         3475.000000         0.417424876       211.746495132       -14.315867004       -13.952480350         0.012824471
      1400         3500.000000         0.421852786       213.992634620       -14.318855850       -13.952483254         0.012824913
      1410         3525.000000         0.427991765       217.106745405       -14.323454555       -13.952465166         0.012775661
      1420         3550.000000         0.431969595       219.124573101       -14.326713135       -13.952421862         0.012844587
      1430         3575.000000         0.433077645       219.686651996       -14.327053703       -13.952358520         0.012851037
      1440         3600.000000         0.435086301       220.705580048       -14.327986705       -13.952290177         0.012861080
      1450         3625.000000         0.439406742       222.897203617       -14.332271817       -13.952227754         0.012773606
      1460         3650.000000         0.444520653       225.491329601       -14.335769238       -13.952157609         0.012786857
      1470         3675.000000         0.447590917       227.048777869       -14.339278158       -13.952088249         0.012785897
      1480         3700.000000         0.449630259       228.083271659       -14.343441529       -13.952028951         0.012724072
      1490         3725.000000         0.451094633       228.826102502       -14.344790100       -13.951979341         0.014032430
      1500         3750.000000         0.450060135       228.301334168       -14.342890108       -13.951949186         0.012773497
      1510         3775.000000         0.443572520       225.010371445       -14.338377995       -13.951944695         0.012883749
      1520         3800.000000         0.436484163       221.414671074       -14.330222737       -13.951957743         0.012858001
      1530         3825.000000         0.424785415       215.480264734       -14.318591059       -13.951973974         0.012842867
      1540         3850.000000         0.412992085       209.497879995       -14.308638195       -13.951987044         0.012832008
      1550         3875.000000         0.409667232       207.811286564       -14.304512491       -13.951991934         0.012867120
      1560         3900.000000         0.410681467       208.325776059       -14.305457648       -13.951977915         0.012782074
      1570         3925.000000         0.416755179       211.406778810       -14.309651873       -13.951940917         0.012907280
      1580         3950.000000         0.421445458       213.786009696       -14.314780109       -13.951888431         0.012788717
      1590         3975.000000         0.425097773       215.638714211       -14.316745210       -13.951835258         0.012853093
      1600         4000.000000         0.421411610       213.768839696       -14.314102974       -13.951800562         0.012835275
      1610         4025.000000         0.421538009       213.832957906       -14.312200577       -13.951800852         0.012795265
      1620         4050.000000         0.426862037       216.533669848       -14.315383512       -13.951831821         0.012835288
      1630         4075.000000         0.436546973       221.446532956       -14.322090177       -13.951881072         0.012786021
      1640         4100.000000         0.440675119       223.540611349       -14.327301929       -13.951941914         0.012839156
      1650         4125.000000         0.442181794       224.304900199       -14.327030493       -13.952010942         0.012837912
      1660         4150.000000         0.437961572       222.164114144       -14.323152182       -13.952088437         0.012773136
      1670         4175.000000         0.434717247       220.518370568       -14.319597417       -13.952172011         0.012805275
      1680         4200.000000         0.429901600       218.075544529       -14.317553772       -13.952251383         0.012765313
      1690         4225.000000         0.430469963       218.363857026       -14.317551499       -13.952317973         0.012783671
      1700         4250.000000         0.432412969       219.349482901       -14.319028307       -13.952367666         0.012759089
      1710         4275.000000         0.434364894       220.339632817       -14.320147639       -13.952398336         0.013488123
      1720         4300.000000         0.438950151       222.665589128       -14.322183558       -13.952420399         0.012830776
      1730         4325.000000         0.443651071       225.050218113       -14.326571694       -13.952445115         0.012825085
      1740         4350.000000         0.449280038       227.905615734       -14.332303819       -13.952481619         0.012795980
      1750         4375.000000         0.453215108       229.901752895       -14.336966890       -13.952537655         0.012831586
      1760         4400.000000         0.453603738       230.098892793       -14.336807940       -13.952614110         0.012809142
      1770         4425.000000         0.444691572       225.578031303       -14.329714113       -13.952707211         0.012845816
      1780         4450.000000         0.432277815       219.280923579       -14.317755093       -13.952811270         0.012807944
      1790         4475.000000         0.422050837       214.093099441       -14.305482517       -13.952915652         0.012799923
      1800         4500.000000         0.415169353       210.602339130       -14.299008435       -13.953017535         0.012811848
      1810         4525.000000         0.415140657       210.587782745       -14.298712414       -13.953111922         0.012786378
      1820         4550.000000         0.416153546       211.101589418       -14.300081795       -13.953187580         0.013992535
      1830         4575.000000         0.417181013       211.622791209       -14.303259938       -13.953247202         0.013681732
      1840         4600.000000         0.423886217       215.024129893       -14.308577943       -13.953292775         0.012809066
      1850         4625.000000         0.428796683       217.515054962       -14.313260642       -13.953321319         0.012789892
      1860         4650.000000         0.429444687       217.843766628       -14.312795544       -13.953315618         0.012824953
      1870         4675.000000         0.427371410       216.792058429       -14.309192605       -13.953265680         0.012760133
      1880         4700.000000         0.430096712       218.174518653       -14.310378676       -13.953190227         0.012796199
      1890         4725.000000         0.431591503       218.932778748       -14.314139437       -13.953100040         0.013769627
      1900         4750.000000         0.433914009       220.110913003       -14.313983828       -13.953005704         0.012809443
      1910         4775.000000         0.431398741       218.834997103       -14.309938526       -13.952921535         0.012801224
      1920         4800.000000         0.429907752       218.078664932       -14.305718351       -13.952855535         0.012845131
      1930         4825.000000         0.425825777       216.008007668       -14.302536362       -13.952808252         0.013069647
      1940         4850.000000         0.425307500       215.745102013       -14.299799093       -13.952775090         0.012767815
      1950         4875.000000         0.427183880       216.696930519       -14.299967959       -13.952767349         0.012831873
      1960         4900.000000         0.431236334       218.752612671       -14.301913176       -13.952793093         0.012827416
      1970         4925.000000         0.430673343       218.467025386       -14.301391379       -13.952846431         0.012802995
      1980         4950.000000         0.429876935       218.063032612       -14.302021184       -13.952931199         0.012856357
      1990         4975.000000         0.433463145       219.882203832       -14.304906417       -13.953031734         0.012766716
      2000         5000.000000         0.433110563       219.703350106       -14.305253184       -13.953117541         0.012831254
      2010         5025.000000         0.427686357       216.951821109       -14.302419870       -13.953174665         0.012791199
      2020         5050.000000         0.422616522       214.380053784       -14.299032351       -13.953203022         0.012780918
      2030         5075.000000         0.419496650       212.797440795       -14.295550793       -13.953201286         0.012741856
      2040         5100.000000         0.417579875       211.825121518       -14.293700914       -13.953179012         0.012838087
      2050         5125.000000         0.421066717       213.593886641       -14.295774173       -13.953152611         0.012791486
      2060         5150.000000         0.426820468       216.512583094       -14.299972059       -13.953134885         0.012812851
      2070         5175.000000         0.430994876       218.630128935       -14.304545620       -13.953134788         0.012807674
      2080         5200.000000         0.439367986       222.877544136       -14.310517737       -13.953157219         0.012865406
      2090         5225.000000         0.446634375       226.563554101       -14.317466832       -13.953193564         0.012773309
      2100         5250.000000         0.451780708       229.174126952       -14.323017598       -13.953228838         0.012817678
      2110         5275.000000         0.453522704       230.057786380       -14.324501288       -13.953250422         0.012821450
      2120         5300.000000         0.449697121       228.117188912       -14.321451593       -13.953252977         0.012812138
      2130         5325.000000         0.448205786       227.360681715       -14.317304392       -13.953237276         0.012838975
      2140         5350.000000         0.447667793       227.087774550       -14.314628158       -13.953195370         0.012813269
      2150         5375.000000         0.448373095       227.445552273       -14.315081536       -13.953130498         0.012836413
      2160         5400.000000         0.450262811       228.404145717       -14.317582472       -13.953056690         0.012819296
      2170         5425.000000         0.450413109       228.480387032       -14.318378206       -13.952985753         0.012841989
      2180         5450.000000         0.450796001       228.674616193       -14.317430219       -13.952925118         0.012757393
      2190         5475.000000         0.457530436       232.090782876       -14.319035873       -13.952886334         0.012798484
      2200         5500.000000         0.459486465       233.083014801       -14.320817352       -13.952868274         0.012736826
      2210         5525.000000         0.454550887       230.579351229       -14.316967640       -13.952864999         0.012857323
      2220         5550.000000         0.446209465       226.348010787       -14.309391226       -13.952875792         0.012750084
      2230         5575.000000         0.443906744       225.179913098       -14.305020914       -13.952899257         0.012779655
      2240         5600.000000         0.443104189       224.772802244       -14.306457691       -13.952925977         0.012767521
      2250         5625.000000         0.447400475       226.952172725       -14.311913417       -13.952944423         0.012744212
      2260         5650.000000         0.451216872       228.888110468       -14.316120388       -13.952946116         0.012786227
      2270         5675.000000         0.449148763       227.839023888       -14.312534461       -13.952927026         0.012743534