#     Step Nr.          Time[fs]        Kin.[a.u.]          Temp[K]            Pot.[a.u.]        Cons Qty[a.u.]        UsedTime[s]
         0            0.000000         0.591402765       300.000000000       -16.481439210       -15.890036445         0.000000000
        10           25.000000         0.595536983       302.097158375       -16.484597917       -15.890169635         0.012773662
        20           50.000000         0.578758527       293.585976106       -16.468672373       -15.890501711         0.012867639
        30           75.000000         0.535128445       271.453809133       -16.427646803       -15.890931582         0.012852732
        40          100.000000         0.483439804       245.233789138       -16.374253244       -15.891367241         0.012855998
        50          125.000000         0.443490391       224.968710262       -16.331012101       -15.891759078         0.012827820
        60          150.000000         0.426646809       216.424491262       -16.310843104       -15.892096738         0.012850571
        70          175.000000         0.427365876       216.789251358       -16.311966270       -15.892398567         0.012815875
        80          200.000000         0.438926632       222.653658863       -16.322453906       -15.892686192         0.012781973
        90          225.000000         0.446967385       226.732479467       -16.332926615       -15.892983928         0.012765913
       100          250.000000         0.456415218       231.525067653       -16.342361386       -15.893316742         0.012807048
       110          275.000000         0.459373161       233.025539132       -16.347974289       -15.893678146         0.012821551
       120          300.000000         0.459906185       233.295925578       -16.347882586       -15.894045307         0.013375149
       130          325.000000         0.457573115       232.112432703       -16.346198330       -15.894406331         0.012822779
       140          350.000000         0.456591541       231.614510926       -16.345949270       -15.894753136         0.012808075
       150          375.000000         0.456008314       231.318658142       -16.345211956       -15.895077219         0.012860061
       160          400.000000         0.455923069       231.275416059       -16.344254121       -15.895374833         0.012827831
       170          425.000000         0.458386999       232.525290184       -16.345876902       -15.895656140         0.012859849
       180          450.000000         0.457960973       232.309180505       -16.344487310       -15.895901069         0.012855897
       190          475.000000         0.453842968       230.220246625       -16.339156984       -15.896088698         0.012827646
       200          500.000000         0.453107104       229.846965936       -16.337011983       -15.896215410         0.012812799
       210          525.000000         0.454285358       230.444656790       -16.338197254       -15.896276211         0.012867033
       220          550.000000         0.456603795       231.620726970       -16.340950528       -15.896286810         0.012902661
       230          575.000000         0.460471835       233.582862088       -16.347877500       -15.896281641         0.012949556
       240          600.000000         0.469506258       238.165740012       -16.358171499       -15.896281710         0.012857204
       250          625.000000         0.476465106       241.695744723       -16.365879277       -15.896283499         0.012901463
       260          650.000000         0.481220905       244.108212038       -16.370214139       -15.896295064         0.012902824
       270          675.000000         0.482329980       244.670810810       -16.372512643       -15.896319489         0.012867884
       280          700.000000         0.485822759       246.442587547       -16.374119508       -15.896355926         0.012858418
       290          725.000000         0.488970108       248.039138595       -16.374621466       -15.896390106         0.012886956
       300          750.000000         0.488902864       248.005027699       -16.375013303       -15.896409347         0.012852427
       310          775.000000         0.490094931       248.609725516       -16.376108935       -15.896401028         0.012898360
       320          800.000000         0.487882462       247.487409722       -16.375522827       -15.896349214         0.013789997
       330          825.000000         0.487336050       247.210232142       -16.373447407       -15.896257388         0.012843308
       340          850.000000         0.488279302       247.688714569       -16.372902945       -15.896158729         0.012813653
       350          875.000000         0.488922343       248.014908739       -16.372208867       -15.896072342         0.012859088
       360          900.000000         0.488661548       247.882615460       -16.373226325       -15.896013226         0.012823301
       370          925.000000         0.491878054       249.514247964       -16.378668480       -15.895977201         0.012808281
       380          950.000000         0.499914248       253.590755823       -16.386964892       -15.895950776         0.012886113
       390          975.000000         0.506072767       256.714778887       -16.391509761       -15.895933258         0.012891933
       400         1000.000000         0.499872935       253.569799103       -16.385781065       -15.895917708         0.013598656
       410         1025.000000         0.492254339       249.705125481       -16.376181051       -15.895912001         0.012822567
       420         1050.000000         0.485648111       246.353994146       -16.371169404       -15.895908779         0.012860099
       430         1075.000000         0.486036165       246.550841635       -16.372255114       -15.895896886         0.012825924
       440         1100.000000         0.489906218       248.513997615       -16.376100412       -15.895882008         0.012885782
       450         1125.000000         0.490492856       248.811580417       -16.377443858       -15.895879308         0.012848910
       460         1150.000000         0.483233538       245.129157047       -16.372275792       -15.895887935         0.012813168
       470         1175.000000         0.475965833       241.442478993       -16.366721333       -15.895904010         0.012819196
       480         1200.000000         0.479724032       243.348895238       -16.370871090       -15.895929914         0.012924126
       490         1225.000000         0.492723853       249.943295037       -16.382487426       -15.895957952         0.012810920
       500         1250.000000         0.502113313       254.706272533       -16.390869447       -15.895988693         0.012814463
       510         1275.000000         0.501719407       254.506456373       -16.389550183       -15.896031234         0.012920080
       520         1300.000000         0.492615759       249.888462213       -16.380602985       -15.896090104         0.012835024
       530         1325.000000         0.481695034       244.348722597       -16.370591501       -15.896165269         0.012795349
       540         1350.000000         0.476055520       241.487974579       -16.365906380       -15.896257105         0.012821372
       550         1375.000000         0.478870705       242.916029311       -16.369347440       -15.896368575         0.012856319
       560         1400.000000         0.486175903       246.621726471       -16.376488529       -15.896496261         0.012837474
       570         1425.000000         0.487587525       247.337797510       -16.378475475       -15.896617279         0.012805206
       580         1450.000000         0.489226095       248.168992499       -16.379480025       -15.896727759         0.012795169
       590         1475.000000         0.497423086       252.327068121       -16.386204125       -15.896844847         0.014318234
       600         1500.000000         0.493354441       250.263172711       -16.385141935       -15.896933856         0.012810182
       610         1525.000000         0.477705638       242.325027652       -16.372629013       -15.896991766         0.012819173
       620         1550.000000         0.466297135       236.537853001       -16.358389932       -15.897017811         0.013689520
       630         1575.000000         0.459490517       233.085070056       -16.353632146       -15.897009127         0.012846988
       640         1600.000000         0.467640147       237.219120839       -16.361637024       -15.896963879         0.012844496
       650         1625.000000         0.482961399       244.991109401       -16.374640773       -15.896881879         0.012818977
       660         1650.000000         0.490756865       248.945503807       -16.380508220       -15.896761335         0.012875788
       670         1675.000000         0.483431055       245.229351231       -16.374866304       -15.896604789         0.012888572
       680         1700.000000         0.476245319       241.584253804       -16.368008285       -15.896435405         0.012829645
       690         1725.000000         0.483400626       245.213915869       -16.370313750       -15.896273960         0.012833450
       700         1750.000000         0.490375208       248.751901323       -16.375636764       -15.896110827         0.012792804
       710         1775.000000         0.493641406       250.408740767       -16.378771241       -15.895952177         0.012846194
       720         1800.000000         0.494737163       250.964583607       -16.380132766       -15.895815791         0.012852782
       730         1825.000000         0.492572461       249.866498462       -16.376873928       -15.895694151         0.012835421
       740         1850.000000         0.484916613       245.982927994       -16.369756570       -15.895565289         0.012882145
       750         1875.000000         0.481834979       244.419712133       -16.366758170       -15.895418418         0.012931165
       760         1900.000000         0.481711774       244.357214399       -16.368573702       -15.895237621         0.012838112
       770         1925.000000         0.488932622       248.020123029       -16.374501923       -15.895044779         0.012853934
       780         1950.000000         0.499688950       253.476469654       -16.384244703       -15.894877467         0.012833558
       790         1975.000000         0.505106643       256.224694774       -16.390574384       -15.894745106         0.012807662
       800         2000.000000         0.504849629       256.094319567       -16.388602420       -15.894642258         0.012874189
       810         2025.000000         0.497309294       252.269344795       -16.379386413       -15.894563124         0.012863137
       820         2050.000000         0.480607064       243.796829614       -16.365211241       -15.894487231         0.012872340
       830         2075.000000         0.467034344       236.911816264       -16.353168982       -15.894408835         0.012868868
       840         2100.000000         0.463621364       235.180518678       -16.349108155       -15.894318906         0.012873100
       850         2125.000000         0.469728560       238.278506949       -16.353333678       -15.894221724         0.012843026
       860         2150.000000         0.475317399       241.113549082       -16.357281075       -15.894119242         0.012907225
       870         2175.000000         0.480357214       243.670088389       -16.357337604       -15.894042430         0.012889618
       880         2200.000000         0.477565304       242.253840605       -16.352259036       -15.894014821         0.012885928
       890         2225.000000         0.469412399       238.118128335       -16.342972320       -15.894039648         0.012869836
       900         2250.000000         0.459050773       232.862001764       -16.333977551       -15.894104089         0.012870521
       910         2275.000000         0.454591778       230.600093960       -16.330214664       -15.894193810         0.013093983
       920         2300.000000         0.453535160       230.064105255       -16.330023911       -15.894290124         0.012850368
       930         2325.000000         0.455583026       231.102923287       -16.330336752       -15.894381437         0.012831020
       940         2350.000000         0.453686617       230.140934366       -16.330142338       -15.894454336         0.012857691
       950         2375.000000         0.454973021       230.793486952       -16.331064234       -15.894496500         0.012886763
       960         2400.000000         0.458516512       232.590988317       -16.335550475       -15.894510212         0.012897477
       970         2425.000000         0.465342662       236.053678889       -16.342992982       -15.894505996         0.012868343
       980         2450.000000         0.470507455       238.673616176       -16.349334743       -15.894496568         0.012864067
       990         2475.000000         0.471512258       239.183320771       -16.349169419       -15.894485090         0.012863525
      1000         2500.000000         0.466016818       236.395657289       -16.342183547       -15.894483054         0.012827471
      1010         2525.000000         0.457490051       232.070296889       -16.333014428       -15.894500891         0.012850761
      1020         2550.000000         0.451758372       229.162796448       -16.327583772       -15.894543796         0.012844478
      1030         2575.000000         0.455852565       231.239651862       -16.331082294       -15.894613066         0.012862624
      1040         2600.000000         0.469969365       238.400659730       -16.343935286       -15.894709060         0.012907913
      1050         2625.000000         0.482148830       244.578919072       -16.356735356       -15.894808500         0.013674632
      1060         2650.000000         0.489049477       248.079399986       -16.363771134       -15.894901452         0.012865260
      1070         2675.000000         0.487571585       247.329712008       -16.363689893       -15.894978548         0.013783414
      1080         2700.000000         0.482430191       244.721644732       -16.356726829       -15.895031904         0.012847617
      1090         2725.000000         0.472460297       239.664231350       -16.345828281       -15.895068376         0.012896642
      1100         2750.000000         0.461272476       233.989002001       -16.334954361       -15.895085485         0.012869588
      1110         2775.000000         0.458912778       232.792001666       -16.329598701       -15.895082062         0.012870281
      1120         2800.000000         0.456122369       231.376514981       -16.327075908       -15.895049064         0.012801672
      1130         2825.000000         0.451534248       229.049105301       -16.321932301       -15.894991084         0.012818761
      1140         2850.000000         0.445629951       226.054041595       -16.315799498       -15.894931646         0.012881071
      1150         2875.000000         0.445001275       225.735133883       -16.315776647       -15.894894937         0.012968504
      1160         2900.000000         0.454671299       230.640432783       -16.324954271       -15.894890009         0.012845103
      1170         2925.000000         0.466606494       236.694781349       -16.335358630       -15.894901853         0.012851993
      1180         2950.000000         0.471271935       239.061412522       -16.340555279       -15.894920925         0.012842275
      1190         2975.000000         0.472177204       239.520627045       -16.341200252       -15.894957185         0.012822912
      1200         3000.000000         0.470969776       238.908136734       -16.337204345       -15.895010690         0.012851401
      1210         3025.000000         0.466786758       236.786223689       -16.332569175       -15.895084726         0.012819374
      1220         3050.000000         0.463448591       235.092876376       -16.331489341       -15.895166981         0.012879083
      1230         3075.000000         0.467969750       237.386318222       -16.337098324       -15.895237972         0.012877853
      1240         3100.000000         0.477946840       242.447381888       -16.347017203       -15.895282313         0.012822887
      1250         3125.000000         0.484603937       245.824317426       -16.353445372       -15.895284148         0.012836139
      1260         3150.000000         0.489147581       248.129164832       -16.357669212       -15.895260583         0.012838904
      1270         3175.000000         0.495807562       251.507563427       -16.365426876       -15.895239910         0.012791067
      1280         3200.000000         0.505460561       256.404225891       -16.373797169       -15.895226879         0.012807518
      1290         3225.000000         0.508178422       257.782911066       -16.377924717       -15.895217684         0.012801900
      1300         3250.000000         0.508724152       258.059743032       -16.377643603       -15.895211349         0.012818548
      1310         3275.000000         0.505854179       256.603896011       -16.372813425       -15.895208840         0.012812388
      1320         3300.000000         0.495650140       251.427708113       -16.362699694       -15.895197230         0.012788702
      1330         3325.000000         0.485385978       246.221022146       -16.354153145       -15.895173464         0.012827344
      1340         3350.000000         0.481918284       244.461969956       -16.352160571       -15.895130053         0.012826616
      1350         3375.000000         0.484625797       245.835406208       -16.352884482       -15.895056912         0.012853114
      1360         3400.000000         0.485243336       246.148664306       -16.350594382       -15.894957083         0.012818488
      1370         3425.000000         0.478988580       242.975823738       -16.342861623       -15.894836626         0.012847961
      1380         3450.000000         0.472038378       239.450205113       -16.335064768       -15.894721566         0.013678100
      1390         3475.000000         0.468129471       237.467339361       -16.332076510       -15.894635568         0.012780716
      1400         3500.000000         0.473391072       240.136384159       -16.335922140       -15.894595864         0.012777303
      1410         3525.000000         0.485676254       246.368270147       -16.346774151       -15.894617270         0.012801342
      1420         3550.000000         0.498280653       252.762084510       -16.358908543       -15.894688991         0.012795282
      1430         3575.000000         0.506632726       256.998828534       -16.366816131       -15.894791808         0.012795514
      1440         3600.000000         0.508458489       257.924980336       -16.367883352       -15.894905201         0.012875106
      1450         3625.000000         0.504963451       256.152057698       -16.364736366       -15.895020948         0.012853425
      1460         3650.000000         0.500088956       253.679379951       -16.358499627       -15.895130628         0.013233610
      1470         3675.000000         0.491657228       249.402229687       -16.350852466       -15.895232556         0.012954378
      1480         3700.000000         0.485249568       246.151825813       -16.346939095       -15.895337939         0.012843556
      1490         3725.000000         0.487090675       247.085761499       -16.348926778       -15.895452696         0.012940909
      1500         3750.000000         0.491097990       249.118545932       -16.352287539       -15.895566914         0.012819071
      1510         3775.000000         0.489848167       248.484550308       -16.353348617       -15.895678807         0.012844056
      1520         3800.000000         0.491867071       249.508676678       -16.354498045       -15.895799935         0.012797836
      1530         3825.000000         0.497905890       252.571979286       -16.360924652       -15.895939709         0.012793727
      1540         3850.000000         0.507493734       257.435590682       -16.372905149       -15.896077506         0.012797969
      1550         3875.000000         0.521811261       264.698421156       -16.386748036       -15.896180981         0.012859849
      1560         3900.000000         0.531307208       269.515416030       -16.396579405       -15.896222576         0.012809409
      1570         3925.000000         0.533656213       270.706992381       -16.397163851       -15.896194841         0.012851139
      1580         3950.000000         0.526266883       266.958617921       -16.390591658       -15.896132416         0.012810635
      1590         3975.000000         0.518084715       262.808061894       -16.380819756       -15.896065765         0.012787868
      1600         4000.000000         0.509701967       258.555757508       -16.373842095       -15.896015763         0.012823243
      1610         4025.000000         0.511368289       259.401030302       -16.373494644       -15.895970992         0.012841179
      1620         4050.000000         0.520792596       264.181684789       -16.380770953       -15.895947609         0.012844881
      1630         4075.000000         0.523560885       265.585950148       -16.380452097       -15.895929386         0.012845662
      1640         4100.000000         0.508224776       257.806425115       -16.366429697       -15.895911985         0.012962658
      1650         4125.000000         0.492417841       249.788064756       -16.348816456       -15.895899219         0.012846559
      1660         4150.000000         0.482700993       244.859013806       -16.339491326       -15.895883488         0.012863748
      1670         4175.000000         0.488574969       247.838696937       -16.345085695       -15.895877830         0.012844866
      1680         4200.000000         0.496690561       251.955481139       -16.356254090       -15.895874188         0.012852395
      1690         4225.000000         0.504572300       255.953639208       -16.363660903       -15.895877493         0.012831651
      1700         4250.000000         0.503832642       255.578433721       -16.362584092       -15.895882077         0.012863249
      1710         4275.000000         0.500719660       253.999316009       -16.358746463       -15.895888939         0.012853350
      1720         4300.000000         0.504092147       255.710072668       -16.359565380       -15.895902077         0.013725225
      1730         4325.000000         0.510877350       259.151992573       -16.366201506       -15.895923050         0.012848923
      1740         4350.000000         0.520358855       263.961661212       -16.375996803       -15.895964425         0.012894557
      1750         4375.000000         0.522450283       265.022577056       -16.379052963       -15.896004171         0.012905595
      1760         4400.000000         0.520528506       264.047720103       -16.376692685       -15.896041902         0.012805395
      1770         4425.000000         0.514669497       261.075629021       -16.372906635       -15.896073069         0.070680755
      1780         4450.000000         0.510052993       258.733821994       -16.368898756       -15.896097872         0.012795926
      1790         4475.000000         0.507845057       257.613805710       -16.364609791       -15.896118595         0.012809942
      1800         4500.000000         0.501938749       254.617721462       -16.359307091       -15.896128212         0.014298471
      1810         4525.000000         0.493655391       250.415834964       -16.350857995       -15.896107331         0.012768620
      1820         4550.000000         0.482745697       244.881690814       -16.340416469       -15.896052906         0.012751673
      1830         4575.000000         0.473630611       240.257894642       -16.333654814       -15.895979444         0.012838215
      1840         4600.000000         0.475102210       241.004390567       -16.333679897       -15.895895014         0.012809584
      1850         4625.000000         0.484520557       245.782021462       -16.342903477       -15.895815407         0.012855447
      1860         4650.000000         0.501946498       254.621652312       -16.359279268       -15.895755905         0.012841040
      1870         4675.000000         0.515433145       261.463003604       -16.371354645       -15.895713131         0.012824062
      1880         4700.000000         0.514759931       261.121503429       -16.369299264       -15.895675538         0.012837126
      1890         4725.000000         0.498556083       252.901801793       -16.355845533       -15.895642378         0.012810951
      1900         4750.000000         0.485028946       246.039910981       -16.339917116       -15.895620995         0.012847525
      1910         4775.000000         0.471688214       239.272577793       -16.325180559       -15.895605660         0.012875707
      1920         4800.000000         0.460324512       233.508129604       -16.311124134       -15.895587015         0.012841273
      1930         4825.000000         0.446605344       226.548827835       -16.298426209       -15.895556295         0.012842726
      1940         4850.000000         0.443829491       225.140724653       -16.293432539       -15.895516574         0.012801512
      1950         4875.000000         0.453122850       229.854953374       -16.301003367       -15.895470534         0.012813299
      1960         4900.000000         0.470302665       238.569732201       -16.315999460       -15.895409955         0.012804274
      1970         4925.000000         0.482043267       244.525370382       -16.327774026       -15.895329996         0.012789792
      1980         4950.000000         0.481858775       244.431783296       -16.329072310       -15.895234487         0.012790406
      1990         4975.000000         0.477674841       242.309405359       -16.324092092       -15.895142779         0.012823104
      2000         5000.000000         0.477209213       242.073206656       -16.324344380       -15.895088402         0.013081700
      2010         5025.000000         0.481452758       244.225823655       -16.331397546       -15.895078934         0.012805521
      2020         5050.000000         0.488089851       247.592611790       -16.340003795       -15.895106404         0.012815053
      2030         5075.000000         0.494226637       250.705610255       -16.346013257       -15.895158064         0.012824977
      2040         5100.000000         0.494512005       250.850368506       -16.346676271       -15.895209137         0.012856517
      2050         5125.000000         0.496466975       251.842063130       -16.347405012       -15.895260896         0.012795235
      2060         5150.000000         0.501250644       254.268667880       -16.350799261       -15.895315262         0.012807251
      2070         5175.000000         0.503644445       255.482967398       -16.353906294       -15.895380224         0.012829403
      2080         5200.000000         0.504778161       256.058065743       -16.352724735       -15.895462879         0.012841920
      2090         5225.000000         0.498601270       252.924723444       -16.346429799       -15.895548606         0.012777570
      2100         5250.000000         0.495830175       251.519034530       -16.344263538       -15.895626417         0.012829029
      2110         5275.000000         0.501465836       254.377827927       -16.349787305       -15.895677800         0.012808427
      2120         5300.000000         0.506432750       256.897386734       -16.355733173       -15.895685027         0.012816122
      2130         5325.000000         0.510693889       259.058928306       -16.357329448       -15.895661154         0.012818963
      2140         5350.000000         0.509186261       258.294156486       -16.353729945       -15.895627254         0.012828449
      2150         5375.000000         0.500697303       253.987975261       -16.345173144       -15.895591135         0.012930537
      2160         5400.000000         0.489445951       248.280518729       -16.334723022       -15.895548139         0.012829809
      2170         5425.000000         0.481173426       244.084126976       -16.327240651       -15.895495668         0.012843760
      2180         5450.000000         0.477534455       242.238191739       -16.322307696       -15.895428804         0.012826078
      2190         5475.000000         0.479081245       243.022829446       -16.318633444       -15.895358130         0.012836018
      2200         5500.000000         0.479862930       243.419353615       -16.319259397       -15.895305944         0.012830255
      2210         5525.000000         0.487620888       247.354721877       -16.328195317       -15.895293502         0.012807137
      2220         5550.000000         0.498641742       252.945254026       -16.340158076       -15.895321653         0.012817110
      2230         5575.000000         0.507502167       257.439868622       -16.347019572       -15.895373711         0.012859209
      2240         5600.000000         0.511144640       259.287580406       -16.353318970       -15.895464965         0.012830224
      2250         5625.000000         0.513064495       260.261462255       -16.356772631       -15.895577342         0.013258498
      2260         5650.000000         0.507317545       257.346215532       -16.351732439       -15.895696501         0.012807558
      2270         5675.000000         0.497230288       252.229267651       -16.340325865       -15.895812978         0.012903719