#     Step Nr.          Time[fs]        Kin.[a.u.]          Temp[K]            Pot.[a.u.]        Cons Qty[a.u.]        UsedTime[s]
         0            0.000000         0.591402765       300.000000000       -14.620332241       -14.028929476         0.000000000
        10           25.000000         0.590610710       299.598215017       -14.618533422       -14.029035284         0.012778877
        20           50.000000         0.564542894       286.374833282       -14.593220725       -14.029296371         0.012881242
        30           75.000000         0.513081427       260.270051519       -14.544193828       -14.029634238         0.012892588
        40          100.000000         0.458763430       232.716241902       -14.488072668       -14.029982881         0.012891823
        50          125.000000         0.419379942       212.738238630       -14.445355723       -14.030303099         0.012810577
        60          150.000000         0.401684238       203.761765386       -14.424308073       -14.030580808         0.012850578
        70          175.000000         0.398226995       202.008014678       -14.421113036       -14.030826321         0.012866089
        80          200.000000         0.404402199       205.140501273       -14.426112023       -14.031058235         0.012835323
        90          225.000000         0.408656091       207.298366891       -14.432543919       -14.031297664         0.012873868
       100          250.000000         0.415187187       210.611386015       -14.438895159       -14.031563533         0.012851086
       110          275.000000         0.417433393       211.750815767       -14.443496634       -14.031852336         0.012887284
       120          300.000000         0.420406187       213.258820138       -14.445703419       -14.032150752         0.012895362
       130          325.000000         0.420124955       213.116160170       -14.445879631       -14.032443180         0.012918771
       140          350.000000         0.418499409       212.291571677       -14.444791745       -14.032719753         0.012849807
       150          375.000000         0.416620056       211.338235288       -14.442602400       -14.032979551         0.012919289
       160          400.000000         0.414662614       210.345286871       -14.439653549       -14.033219564         0.012882896
       170          425.000000         0.416814652       211.436947693       -14.440855495       -14.033459466         0.012842764
       180          450.000000         0.417749375       211.911103254       -14.440743809       -14.033684525         0.012966498
       190          475.000000         0.412599149       209.298555925       -14.434323371       -14.033868222         0.012864676
       200          500.000000         0.409022059       207.484010576       -14.429297431       -14.034005375         0.012849168
       210          525.000000         0.409320037       207.635165716       -14.429500757       -14.034091798         0.012849355
       220          550.000000         0.410630509       208.299926982       -14.431118016       -14.034127125         0.012884749
       230          575.000000         0.410702786       208.336590438       -14.433960714       -14.034131139         0.012901617
       240          600.000000         0.415689014       210.865946991       -14.439978378       -14.034123364         0.012941236
       250          625.000000         0.421789250       213.960404644       -14.446608522       -14.034104129         0.012919465
       260          650.000000         0.427582786       216.899283266       -14.451814191       -14.034075389         0.012871806
       270          675.000000         0.430926622       218.595505830       -14.456084064       -14.034047233         0.012844791
       280          700.000000         0.435660844       220.997027341       -14.458835716       -14.034023870         0.012861352
       290          725.000000         0.439819323       223.106492888       -14.460301683       -14.034008606         0.012887129
       300          750.000000         0.441160004       223.786578037       -14.461914602       -14.033998731         0.012860428
       310          775.000000         0.442758573       224.597481938       -14.463283531       -14.033983851         0.012892552
       320          800.000000         0.439012596       222.697265846       -14.460958084       -14.033944803         0.013684072
       330          825.000000         0.434960635       220.641833535       -14.455334088       -14.033870953         0.012879532
       340          850.000000         0.431969948       219.124752180       -14.450782682       -14.033769896         0.013085148
       350          875.000000         0.431475057       218.873709790       -14.448845236       -14.033661575         0.012896374
       360          900.000000         0.429028804       217.632802634       -14.447388770       -14.033559366         0.012868511
       370          925.000000         0.428049234       217.135897639       -14.448272589       -14.033478106         0.012842088
       380          950.000000         0.434188397       220.250101470       -14.454442163       -14.033421234         0.012858021
       390          975.000000         0.444288388       225.373508784       -14.462831681       -14.033373738         0.012877699
       400         1000.000000         0.450914923       228.734941459       -14.469720167       -14.033334584         0.012839540
       410         1025.000000         0.453472803       230.032473421       -14.470249941       -14.033305634         0.012820237
       420         1050.000000         0.444585233       225.524088887       -14.462769685       -14.033286350         0.012918667
       430         1075.000000         0.436087931       221.213675148       -14.454820350       -14.033280799         0.012877894
       440         1100.000000         0.432791239       219.541367030       -14.451361174       -14.033274385         0.012898729
       450         1125.000000         0.432530393       219.409048150       -14.451631125       -14.033253578         0.012870015
       460         1150.000000         0.432913120       219.603193732       -14.453795544       -14.033221524         0.012935288
       470         1175.000000         0.433990381       220.149654013       -14.456336482       -14.033194271         0.012867204
       480         1200.000000         0.433262944       219.780648390       -14.455824943       -14.033177189         0.012863968
       490         1225.000000         0.430214962       218.234502848       -14.451284693       -14.033164371         0.012858004
       500         1250.000000         0.427764583       216.991502707       -14.447670741       -14.033153055         0.012868348
       510         1275.000000         0.431150863       218.709255959       -14.449950450       -14.033138224         0.013696074
       520         1300.000000         0.440123444       223.260764011       -14.458842684       -14.033127429         0.012885998
       530         1325.000000         0.448222438       227.369128531       -14.467633343       -14.033126616         0.012875659
       540         1350.000000         0.449366422       227.949435761       -14.469556235       -14.033144504         0.012894531
       550         1375.000000         0.442689128       224.562254574       -14.463333167       -14.033184093         0.012872808
       560         1400.000000         0.434092660       220.201537243       -14.454404486       -14.033247411         0.012854123
       570         1425.000000         0.429406479       217.824385287       -14.450080877       -14.033338781         0.012861166
       580         1450.000000         0.432565457       219.426835040       -14.452502153       -14.033460049         0.012899021
       590         1475.000000         0.440462242       223.432625571       -14.458893897       -14.033606730         0.012862534
       600         1500.000000         0.442716975       224.576380629       -14.463908615       -14.033766985         0.012847036
       610         1525.000000         0.441060612       223.736159987       -14.465231759       -14.033926041         0.012863068
       620         1550.000000         0.447222775       226.862031029       -14.468697998       -14.034091301         0.013806409
       630         1575.000000         0.448430213       227.474526342       -14.472054941       -14.034255002         0.012824182
       640         1600.000000         0.441492807       223.955398440       -14.465103312       -14.034388112         0.012936265
       650         1625.000000         0.428737304       217.484933818       -14.450201582       -14.034484780         0.012871167
       660         1650.000000         0.418360964       212.221343203       -14.438026539       -14.034541843         0.012904786
       670         1675.000000         0.415307010       210.672168577       -14.436486006       -14.034556590         0.012883451
       680         1700.000000         0.423975677       215.069510023       -14.445441231       -14.034529980         0.012858570
       690         1725.000000         0.440153002       223.275757921       -14.456968941       -14.034470555         0.012839659
       700         1750.000000         0.444215000       225.336281602       -14.459393235       -14.034377108         0.012883207
       710         1775.000000         0.437279829       221.818287406       -14.452236847       -14.034265504         0.012878699
       720         1800.000000         0.429101947       217.669905529       -14.444143590       -14.034145799         0.012881517
       730         1825.000000         0.429995061       218.122954144       -14.443831794       -14.034025548         0.012919042
       740         1850.000000         0.437125164       221.739830811       -14.451310980       -14.033904163         0.012871512
       750         1875.000000         0.447117793       226.808776843       -14.461302686       -14.033788145         0.012899425
       760         1900.000000         0.452118984       229.345723542       -14.468164984       -14.033687067         0.012906206
       770         1925.000000         0.451995515       229.283091592       -14.466795981       -14.033591387         0.012876286
       780         1950.000000         0.443814525       225.133133220       -14.457562847       -14.033485802         0.012857467
       790         1975.000000         0.435396922       220.863148412       -14.449818863       -14.033364142         0.012864803
       800         2000.000000         0.437477693       221.918657858       -14.450075368       -14.033224752         0.012891009
       810         2025.000000         0.444119820       225.287999699       -14.454891935       -14.033067026         0.012939055
       820         2050.000000         0.447897356       227.204224519       -14.460881680       -14.032911526         0.012903905
       830         2075.000000         0.451739357       229.153150879       -14.466104780       -14.032783544         0.012894581
       840         2100.000000         0.453639470       230.117018440       -14.467334104       -14.032698011         0.012915384
       850         2125.000000         0.452766456       229.674165630       -14.464627604       -14.032661429         0.012888933
       860         2150.000000         0.451233697       228.896645444       -14.461535914       -14.032668800         0.012923298
       870         2175.000000         0.451593945       229.079387666       -14.457086297       -14.032702029         0.013754981
       880         2200.000000         0.443146083       224.794053789       -14.446389487       -14.032722227         0.012915429
       890         2225.000000         0.436136224       221.238172650       -14.438172726       -14.032727560         0.012936576
       900         2250.000000         0.435014057       220.668932953       -14.438218606       -14.032722156         0.012878857
       910         2275.000000         0.436853395       221.601971103       -14.440570157       -14.032697824         0.012910275
       920         2300.000000         0.438846800       222.613162758       -14.443246389       -14.032672529         0.012918045
       930         2325.000000         0.443107416       224.774438865       -14.445663711       -14.032666075         0.012939108
       940         2350.000000         0.439077854       222.730369128       -14.443217774       -14.032680600         0.012903512
       950         2375.000000         0.431631703       218.953171121       -14.435347641       -14.032712621         0.012905860
       960         2400.000000         0.423574861       214.866188780       -14.428147059       -14.032764151         0.012867336
       970         2425.000000         0.420742346       213.429343244       -14.425852172       -14.032828777         0.012865647
       980         2450.000000         0.423379457       214.767066418       -14.429556899       -14.032903033         0.012900372
       990         2475.000000         0.430441369       218.349352197       -14.435465516       -14.032977971         0.012883846
      1000         2500.000000         0.435833445       221.084582381       -14.439390415       -14.033036776         0.012915192
      1010         2525.000000         0.439594180       222.992284925       -14.442476955       -14.033067738         0.012845320
      1020         2550.000000         0.440891936       223.650595600       -14.443980356       -14.033058543         0.012914983
      1030         2575.000000         0.438933865       222.657328142       -14.441281527       -14.033007426         0.012900345
      1040         2600.000000         0.437158603       221.756793655       -14.438044993       -14.032940179         0.012928757
      1050         2625.000000         0.437477511       221.918565216       -14.438686977       -14.032881341         0.012895618
      1060         2650.000000         0.441119050       223.765803622       -14.442194958       -14.032838971         0.012843949
      1070         2675.000000         0.442361092       224.395852327       -14.444531946       -14.032810295         0.012878789
      1080         2700.000000         0.443140138       224.791037767       -14.443384893       -14.032795103         0.012882755
      1090         2725.000000         0.441020120       223.715619577       -14.440242181       -14.032798426         0.012904600
      1100         2750.000000         0.438998728       222.690231133       -14.438466105       -14.032829433         0.012923103
      1110         2775.000000         0.441012643       223.711826732       -14.437550180       -14.032881456         0.012866006
      1120         2800.000000         0.439396970       222.892246340       -14.436242631       -14.032943785         0.012902094
      1130         2825.000000         0.439528471       222.958952864       -14.435905631       -14.033011261         0.012908660
      1140         2850.000000         0.440328381       223.364721953       -14.436586268       -14.033080652         0.013003041
      1150         2875.000000         0.439923578       223.159378456       -14.436878844       -14.033150631         0.012957562
      1160         2900.000000         0.438939104       222.659985408       -14.435438041       -14.033212371         0.012922623
      1170         2925.000000         0.439491087       222.939989295       -14.434472608       -14.033261979         0.012902598
      1180         2950.000000         0.439888760       223.141716005       -14.435318058       -14.033299475         0.013002981
      1190         2975.000000         0.437434531       221.896762841       -14.432504826       -14.033318161         0.012898798
      1200         3000.000000         0.429409168       217.825749050       -14.421644594       -14.033316299         0.012899127
      1210         3025.000000         0.418349801       212.215680728       -14.409955251       -14.033310579         0.012898602
      1220         3050.000000         0.413967677       209.992766818       -14.407498373       -14.033317490         0.012907797
      1230         3075.000000         0.421150145       213.636207049       -14.415523006       -14.033335290         0.012911507
      1240         3100.000000         0.435528395       220.929840416       -14.429705263       -14.033362901         0.012878151
      1250         3125.000000         0.447969012       227.240573800       -14.441842583       -14.033391907         0.012949052
      1260         3150.000000         0.452809200       229.695848316       -14.446318864       -14.033411077         0.012910736
      1270         3175.000000         0.448695877       227.609289280       -14.443166757       -14.033414504         0.012853986
      1280         3200.000000         0.441328214       223.871905938       -14.434436964       -14.033391401         0.012870060
      1290         3225.000000         0.433846835       220.076838094       -14.428044024       -14.033348976         0.012891815
      1300         3250.000000         0.439107219       222.745265017       -14.432306265       -14.033304199         0.012920728
      1310         3275.000000         0.452720497       229.650852407       -14.443887604       -14.033266900         0.012847205
      1320         3300.000000         0.459646809       233.164352435       -14.450744180       -14.033231930         0.012897068
      1330         3325.000000         0.458055375       232.357067823       -14.450735809       -14.033214962         0.012893125
      1340         3350.000000         0.454802246       230.706857948       -14.448903979       -14.033234430         0.012863986
      1350         3375.000000         0.454871690       230.742084661       -14.447091521       -14.033286257         0.012899869
      1360         3400.000000         0.457830212       232.242849700       -14.447327223       -14.033364103         0.012867045
      1370         3425.000000         0.462031205       234.373881252       -14.450243341       -14.033463347         0.012908033
      1380         3450.000000         0.462757488       234.742301521       -14.450321818       -14.033564226         0.012871925
      1390         3475.000000         0.457105794       231.875375596       -14.445725429       -14.033651397         0.012876585
      1400         3500.000000         0.453375520       229.983124720       -14.440667228       -14.033721940         0.012908028
      1410         3525.000000         0.449913039       228.226717411       -14.435759039       -14.033765402         0.012849338
      1420         3550.000000         0.445887352       226.184613194       -14.431109679       -14.033778039         0.012891773
      1430         3575.000000         0.446384889       226.436997665       -14.430920548       -14.033768417         0.012863532
      1440         3600.000000         0.453736175       230.166073990       -14.437269013       -14.033741915         0.012953976
      1450         3625.000000         0.461618516       234.164537024       -14.445190472       -14.033692337         0.013700874
      1460         3650.000000         0.466275182       236.526717247       -14.448253965       -14.033618916         0.012883303
      1470         3675.000000         0.460833678       233.766413516       -14.443296415       -14.033530520         0.012860218
      1480         3700.000000         0.451194274       228.876647151       -14.435794958       -14.033448982         0.012813977
      1490         3725.000000         0.451262496       228.911254240       -14.435760786       -14.033413396         0.012884252
      1500         3750.000000         0.457232181       231.939487446       -14.440926275       -14.033438363         0.012871257
      1510         3775.000000         0.456488297       231.562138433       -14.442289561       -14.033514216         0.012890762
      1520         3800.000000         0.454178741       230.390573599       -14.439034800       -14.033621743         0.012869103
      1530         3825.000000         0.451024327       228.790438501       -14.436107072       -14.033729373         0.012870464
      1540         3850.000000         0.450240750       228.392954940       -14.437399551       -14.033813415         0.012907520
      1550         3875.000000         0.454690583       230.650215077       -14.441178193       -14.033856725         0.012895481
      1560         3900.000000         0.458436986       232.550647332       -14.445020470       -14.033867572         0.012887598
      1570         3925.000000         0.461577577       234.143769983       -14.446343277       -14.033855132         0.012945014
      1580         3950.000000         0.459983231       233.335008544       -14.445358893       -14.033828212         0.012879220
      1590         3975.000000         0.462054833       234.385867147       -14.445804927       -14.033796536         0.012899554
      1600         4000.000000         0.465007788       235.883808070       -14.449975675       -14.033768200         0.013066630
      1610         4025.000000         0.470352385       238.594953866       -14.453292465       -14.033739249         0.012842903
      1620         4050.000000         0.469807778       238.318691774       -14.450570027       -14.033706701         0.012922338
      1630         4075.000000         0.465697243       236.233546795       -14.443372500       -14.033674127         0.012861965
      1640         4100.000000         0.457807718       232.231439138       -14.436567472       -14.033646842         0.012873092
      1650         4125.000000         0.455855300       231.241039099       -14.432751948       -14.033618105         0.012823034
      1660         4150.000000         0.455242106       230.929984972       -14.432415159       -14.033576499         0.012889691
      1670         4175.000000         0.460723888       233.710720332       -14.437501802       -14.033523410         0.012882875
      1680         4200.000000         0.466181655       236.479273953       -14.445780830       -14.033461519         0.012861541
      1690         4225.000000         0.473819594       240.353759814       -14.452811848       -14.033401940         0.012821445
      1700         4250.000000         0.476704302       241.817081095       -14.455246113       -14.033362028         0.012842248
      1710         4275.000000         0.475198271       241.053118987       -14.452949525       -14.033353088         0.013668879
      1720         4300.000000         0.474342791       240.619161317       -14.449554992       -14.033381141         0.012876996
      1730         4325.000000         0.473135194       240.006585015       -14.448152996       -14.033443131         0.012908779
      1740         4350.000000         0.471001786       238.924374645       -14.446249121       -14.033531644         0.012883218
      1750         4375.000000         0.461953796       234.334613982       -14.438022213       -14.033629817         0.012885529
      1760         4400.000000         0.454754011       230.682389701       -14.430319006       -14.033739579         0.012876010
      1770         4425.000000         0.456307619       231.470486555       -14.433738469       -14.033865575         0.012890822
      1780         4450.000000         0.464446424       235.599045679       -14.442396424       -14.033982614         0.012887122
      1790         4475.000000         0.471649422       239.252899960       -14.447577455       -14.034084939         0.012898428
      1800         4500.000000         0.469997168       238.414763450       -14.446499326       -14.034178393         0.012874454
      1810         4525.000000         0.461288912       233.997339595       -14.437638258       -14.034252814         0.012818324
      1820         4550.000000         0.449491962       228.013117958       -14.426308474       -14.034307135         0.012868402
      1830         4575.000000         0.443810263       225.130971108       -14.422936750       -14.034362491         0.012924893
      1840         4600.000000         0.448498524       227.509178404       -14.426290171       -14.034426873         0.012880396
      1850         4625.000000         0.449079234       227.803754032       -14.426745733       -14.034495935         0.012855561
      1860         4650.000000         0.445341506       225.907722719       -14.422003960       -14.034570130         0.012925434
      1870         4675.000000         0.442543155       224.488207167       -14.417822948       -14.034648398         0.012826991
      1880         4700.000000         0.447186755       226.843759400       -14.421102269       -14.034727251         0.012815981
      1890         4725.000000         0.456535182       231.585921837       -14.432990445       -14.034796899         0.012876405
      1900         4750.000000         0.471484618       239.169300192       -14.445616088       -14.034837676         0.012865690
      1910         4775.000000         0.477469538       242.205261224       -14.450198069       -14.034831030         0.012914163
      1920         4800.000000         0.477458695       242.199761326       -14.447470759       -14.034780361         0.012883197
      1930         4825.000000         0.471917477       239.388875694       -14.442987748       -14.034701919         0.012855283
      1940         4850.000000         0.471098251       238.973307926       -14.439905033       -14.034602090         0.012893251
      1950         4875.000000         0.472123710       239.493491461       -14.439159782       -14.034484781         0.012884356
      1960         4900.000000         0.473040985       239.958795970       -14.437830065       -14.034346422         0.012841627
      1970         4925.000000         0.467866025       237.333701655       -14.432607089       -14.034190631         0.012826754
      1980         4950.000000         0.458098339       232.378862299       -14.424171842       -14.034031530         0.012817528
      1990         4975.000000         0.451532225       229.048079329       -14.416705984       -14.033888633         0.012816907
      2000         5000.000000         0.447146192       226.823182832       -14.412874035       -14.033773308         0.012833353
      2010         5025.000000         0.444108978       225.282499677       -14.412378487       -14.033692786         0.012817822
      2020         5050.000000         0.443343151       224.894020141       -14.413310078       -14.033645907         0.012809288
      2030         5075.000000         0.445489391       225.982740017       -14.415139433       -14.033629652         0.012821327
      2040         5100.000000         0.449517766       228.026207833       -14.419355988       -14.033640083         0.012844294
      2050         5125.000000         0.456216394       231.424210939       -14.424738269       -14.033664161         0.012810092
      2060         5150.000000         0.461951102       234.333247677       -14.429004970       -14.033690966         0.012853472
      2070         5175.000000         0.464376520       235.563585488       -14.431978468       -14.033723364         0.012867839
      2080         5200.000000         0.466438820       236.609725555       -14.431665238       -14.033758888         0.012846376
      2090         5225.000000         0.462101433       234.409505822       -14.427065866       -14.033795489         0.012814694
      2100         5250.000000         0.456953971       231.798360115       -14.422366284       -14.033835932         0.012912796
      2110         5275.000000         0.456933446       231.787948504       -14.422117094       -14.033878735         0.012875225
      2120         5300.000000         0.460825390       233.762209029       -14.426839796       -14.033907547         0.012882668
      2130         5325.000000         0.472178930       239.521502600       -14.435550535       -14.033912225         0.012917548
      2140         5350.000000         0.483892142       245.463246328       -14.445175215       -14.033896703         0.012862967
      2150         5375.000000         0.488379064       247.739320432       -14.449560051       -14.033877599         0.012860701
      2160         5400.000000         0.482130102       244.569418645       -14.444119207       -14.033871761         0.012862885
      2170         5425.000000         0.471956341       239.408590195       -14.434783180       -14.033896871         0.012851070
      2180         5450.000000         0.470688075       238.765238934       -14.432341884       -14.033963992         0.012924211
      2190         5475.000000         0.478931937       242.947090253       -14.435522939       -14.034047794         0.013739390
      2200         5500.000000         0.478795879       242.878072570       -14.435360053       -14.034123187         0.012857108
      2210         5525.000000         0.469762243       238.295593595       -14.427553625       -14.034191180         0.012846567
      2220         5550.000000         0.457549234       232.100318605       -14.416227749       -14.034274714         0.012856966
      2230         5575.000000         0.451925022       229.247332871       -14.408632558       -14.034390735         0.012829477
      2240         5600.000000         0.449624931       228.080569173       -14.408720307       -14.034528400         0.012847861
      2250         5625.000000         0.454730618       230.670523257       -14.415120881       -14.034654408         0.012860897
      2260         5650.000000         0.463313094       235.024143041       -14.424215588       -14.034744759         0.013793768
      2270         5675.000000         0.471446355       239.149890369       -14.430924783       -14.034799045         0.012874899