
     Program PWSCF v.6.4.1 starts on 28May2021 at 18: 0: 5 

     This program is part of the open-source Quantum ESPRESSO suite
     for quantum simulation of materials; please cite
         "P. Giannozzi et al., J. Phys.:Condens. Matter 21 395502 (2009);
         "P. Giannozzi et al., J. Phys.:Condens. Matter 29 465901 (2017);
          URL http://www.quantum-espresso.org", 
     in publications or presentations arising from this work. More details at
     http://www.quantum-espresso.org/quote

     Parallel version (MPI & OpenMP), running on      64 processor cores
     Number of MPI processes:                64
     Threads/MPI process:                     1

     MPI processes distributed on     2 nodes
     R & G space division:  proc/nbgrp/npool/nimage =      64
     Reading input from ZnTHPP_dimer_relax.in
Warning: card &CELL ignored
Warning: card / ignored

     Current dimensions of program PWSCF are:
     Max number of different atomic species (ntypx) = 10
     Max number of k-points (npk) =  40000
     Max angular momentum in pseudopotentials (lmaxx) =  3
               file C.pbe-n-kjpaw_psl.1.0.0.UPF: wavefunction(s)  2S 2P renormalized
               file O.pbe-n-kjpaw_psl.0.1.UPF: wavefunction(s)  2P renormalized

     gamma-point specific algorithms are used

     Subspace diagonalization in iterative solution of the eigenvalue problem:
     one sub-group per band group will be used
     scalapack distributed-memory algorithm (size of sub-group:  5*  5 procs)

 
     Parallelization info
     --------------------
     sticks:   dense  smooth     PW     G-vecs:    dense   smooth      PW
     Min        1397     558    139               314809    79630    9956
     Max        1402     560    142               314820    79652    9968
     Sum       89493   35781   8969             20148069  5096985  637483
 


     bravais-lattice index     =            0
     lattice parameter (alat)  =      56.6918  a.u.
     unit-cell volume          =  182205.0337 (a.u.)^3
     number of atoms/cell      =          162
     number of atomic types    =            5
     number of electrons       =       536.00
     number of Kohn-Sham states=          322
     kinetic-energy cutoff     =      35.0000  Ry
     charge density cutoff     =     350.0000  Ry
     convergence threshold     =      1.0E-08
     mixing beta               =       0.7000
     number of iterations used =            8  plain     mixing
     Exchange-correlation      = SLA PW PBX PBC ( 1  4  3  4 0 0)
     nstep                     =           50


     celldm(1)=  56.691784  celldm(2)=   0.000000  celldm(3)=   0.000000
     celldm(4)=   0.000000  celldm(5)=   0.000000  celldm(6)=   0.000000

     crystal axes: (cart. coord. in units of alat)
               a(1) = (   1.000000   0.000000   0.000000 )  
               a(2) = (   0.000000   1.000000   0.000000 )  
               a(3) = (   0.000000   0.000000   1.000000 )  

     reciprocal axes: (cart. coord. in units 2 pi/alat)
               b(1) = (  1.000000  0.000000  0.000000 )  
               b(2) = (  0.000000  1.000000  0.000000 )  
               b(3) = (  0.000000  0.000000  1.000000 )  


     PseudoPot. # 1 for C  read from file:
     /u/fzheng/0.qe_calculations/pseudos/SSSP_efficiency_pseudos/C.pbe-n-kjpaw_psl.1.0.0.UPF
     MD5 check sum: 5d2aebdfa2cae82b50a7e79e9516da0f
     Pseudo is Projector augmented-wave + core cor, Zval =  4.0
     Generated using "atomic" code by A. Dal Corso v.5.1
     Shape of augmentation charge: PSQ
     Using radial grid of 1073 points,  4 beta functions with: 
                l(1) =   0
                l(2) =   0
                l(3) =   1
                l(4) =   1
     Q(r) pseudized with 0 coefficients 


     PseudoPot. # 2 for N  read from file:
     /u/fzheng/0.qe_calculations/pseudos/SSSP_efficiency_pseudos/N.pbe-n-radius_5.UPF
     MD5 check sum: 16739722b17309cd8fe442a2ace49922
     Pseudo is Ultrasoft + core correction, Zval =  5.0
     Generated using "atomic" code by A. Dal Corso v.5.1
     Using radial grid of 1085 points,  4 beta functions with: 
                l(1) =   0
                l(2) =   0
                l(3) =   1
                l(4) =   1
     Q(r) pseudized with 0 coefficients 


     PseudoPot. # 3 for H  read from file:
     /u/fzheng/0.qe_calculations/pseudos/SSSP_efficiency_pseudos/H.pbe-rrkjus_psl.1.0.0.UPF
     MD5 check sum: f52b6d4d1c606e5624b1dc7b2218f220
     Pseudo is Ultrasoft, Zval =  1.0
     Generated using "atomic" code by A. Dal Corso v.5.1
     Using radial grid of  929 points,  2 beta functions with: 
                l(1) =   0
                l(2) =   0
     Q(r) pseudized with 0 coefficients 


     PseudoPot. # 4 for Zn read from file:
     /u/fzheng/0.qe_calculations/pseudos/SSSP_efficiency_pseudos/Zn_pbe_v1.uspp.F.UPF
     MD5 check sum: df62231357ef9e81f77b2b3087fa5675
     Pseudo is Ultrasoft, Zval = 20.0
     Generated by new atomic code, or converted to UPF format
     Using radial grid of  943 points,  6 beta functions with: 
                l(1) =   0
                l(2) =   0
                l(3) =   1
                l(4) =   1
                l(5) =   2
                l(6) =   2
     Q(r) pseudized with  8 coefficients,  rinner =    1.100   1.100   1.100
                                                       1.100   1.100

     PseudoPot. # 5 for O  read from file:
     /u/fzheng/0.qe_calculations/pseudos/SSSP_efficiency_pseudos/O.pbe-n-kjpaw_psl.0.1.UPF
     MD5 check sum: 0234752ac141de4415c5fc33072bef88
     Pseudo is Projector augmented-wave + core cor, Zval =  6.0
     Generated using "atomic" code by A. Dal Corso v.5.0.99 svn rev. 10869
     Shape of augmentation charge: BESSEL
     Using radial grid of 1095 points,  4 beta functions with: 
                l(1) =   0
                l(2) =   0
                l(3) =   1
                l(4) =   1
     Q(r) pseudized with 0 coefficients 


     atomic species   valence    mass     pseudopotential
        C              4.00    12.01070     C ( 1.00)
        N              5.00    14.00674     N ( 1.00)
        H              1.00     1.00794     H ( 1.00)
        Zn            20.00    65.39000     Zn( 1.00)
        O              6.00    15.99900     O ( 1.00)

     No symmetry found



   Cartesian axes

     site n.     atom                  positions (alat units)
         1           C   tau(   1) = (   0.4852700   0.3522600   0.5382000  )
         2           C   tau(   2) = (   0.5305100   0.3580600   0.5400800  )
         3           C   tau(   3) = (   0.5392500   0.4065200   0.5392700  )
         4           C   tau(   4) = (   0.5796700   0.4266400   0.5410400  )
         5           C   tau(   5) = (   0.5871500   0.4734500   0.5405000  )
         6           C   tau(   6) = (   0.6305300   0.4938000   0.5426300  )
         7           C   tau(   7) = (   0.6243500   0.5397900   0.5403500  )
         8           C   tau(   8) = (   0.5768300   0.5474700   0.5376500  )
         9           C   tau(   9) = (   0.5567200   0.5897500   0.5359000  )
        10           C   tau(  10) = (   0.5118300   0.5975600   0.5337600  )
        11           C   tau(  11) = (   0.4376700   0.5854600   0.5296300  )
        12           C   tau(  12) = (   0.3885800   0.5199400   0.5273500  )
        13           C   tau(  13) = (   0.3955400   0.5651300   0.5273500  )
        14           C   tau(  14) = (   0.3988100   0.4450200   0.5281500  )
        15           C   tau(  15) = (   0.3502900   0.4535800   0.5240200  )
        16           C   tau(  16) = (   0.3442200   0.4986300   0.5244600  )
        17           C   tau(  17) = (   0.4646600   0.3966800   0.5351800  )
        18           C   tau(  18) = (   0.4183000   0.4039300   0.5309600  )
        19           C   tau(  19) = (   0.4900300   0.6411400   0.5320400  )
        20           C   tau(  20) = (   0.4448100   0.6340100   0.5292500  )
        21           C   tau(  21) = (   0.5890500   0.6296000   0.5367100  )
        22           C   tau(  22) = (   0.6055000   0.6470100   0.4968700  )
        23           C   tau(  23) = (   0.6019000   0.6483100   0.5773101  )
        24           C   tau(  24) = (   0.6347900   0.6831300   0.4975800  )
        25           C   tau(  25) = (   0.6311700   0.6844500   0.5780200  )
        26           C   tau(  26) = (   0.6476400   0.7018400   0.5381800  )
        27           C   tau(  27) = (   0.6221700   0.3979500   0.5436900  )
        28           C   tau(  28) = (   0.6393200   0.3856100   0.5851300  )
        29           C   tau(  29) = (   0.6434800   0.3842800   0.5047100  )
        30           C   tau(  30) = (   0.6778000   0.3596200   0.5875600  )
        31           C   tau(  31) = (   0.6819600   0.3583000   0.5071400  )
        32           C   tau(  32) = (   0.6991200   0.3459500   0.5485400  )
        33           C   tau(  33) = (   0.3543700   0.5956400   0.5241900  )
        34           C   tau(  34) = (   0.3329700   0.6098700   0.5629200  )
        35           C   tau(  35) = (   0.3385300   0.6090200   0.4825700  )
        36           C   tau(  36) = (   0.2956500   0.6375000   0.5600700  )
        37           C   tau(  37) = (   0.3012300   0.6366800   0.4797300  )
        38           C   tau(  38) = (   0.2798000   0.6509200   0.5184500  )
        39           C   tau(  39) = (   0.3885000   0.3621500   0.5294700  )
        40           C   tau(  40) = (   0.3714700   0.3443100   0.5688800  )
        41           C   tau(  41) = (   0.3785500   0.3421500   0.4886900  )
        42           C   tau(  42) = (   0.3445100   0.3064500   0.5675300  )
        43           C   tau(  43) = (   0.3515400   0.3043200   0.4872900  )
        44           C   tau(  44) = (   0.3345300   0.2864600   0.5267100  )
        45           C   tau(  45) = (   0.4027000   0.4086100   0.4115500  )
        46           C   tau(  46) = (   0.4375400   0.3791300   0.4103100  )
        47           C   tau(  47) = (   0.4791800   0.4053700   0.4118400  )
        48           C   tau(  48) = (   0.5213200   0.3890600   0.4117400  )
        49           C   tau(  49) = (   0.5608900   0.4150900   0.4135300  )
        50           C   tau(  50) = (   0.6052000   0.3967400   0.4135800  )
        51           C   tau(  51) = (   0.6349500   0.4324100   0.4146400  )
        52           C   tau(  52) = (   0.6085200   0.4727100   0.4160900  )
        53           C   tau(  53) = (   0.6261200   0.5160600   0.4185200  )
        54           C   tau(  54) = (   0.6015700   0.5544600   0.4203300  )
        55           C   tau(  55) = (   0.5425500   0.6011400   0.4211600  )
        56           C   tau(  56) = (   0.4610600   0.5933400   0.4185900  )
        57           C   tau(  57) = (   0.4991000   0.6186100   0.4208700  )
        58           C   tau(  58) = (   0.4127100   0.5353900   0.4139500  )
        59           C   tau(  59) = (   0.3862400   0.5771500   0.4141000  )
        60           C   tau(  60) = (   0.4153800   0.6118500   0.4178100  )
        61           C   tau(  61) = (   0.4215400   0.4538900   0.4128900  )
        62           C   tau(  62) = (   0.3955600   0.4931900   0.4127100  )
        63           C   tau(  63) = (   0.6189900   0.5999200   0.4229900  )
        64           C   tau(  64) = (   0.5831800   0.6285700   0.4232400  )
        65           C   tau(  65) = (   0.6773500   0.5190400   0.4193100  )
        66           C   tau(  66) = (   0.7010500   0.5226100   0.3794800  )
        67           C   tau(  67) = (   0.7000700   0.5181900   0.4598900  )
        68           C   tau(  68) = (   0.7474799   0.5253300   0.3801900  )
        69           C   tau(  69) = (   0.7465000   0.5209400   0.4605900  )
        70           C   tau(  70) = (   0.7702100   0.5244800   0.4207600  )
        71           C   tau(  71) = (   0.5288600   0.3383300   0.4093300  )
        72           C   tau(  72) = (   0.5315900   0.3133700   0.4484900  )
        73           C   tau(  73) = (   0.5329200   0.3173500   0.3680500  )
        74           C   tau(  74) = (   0.5384100   0.2674200   0.4463300  )
        75           C   tau(  75) = (   0.5397500   0.2714100   0.3658900  )
        76           C   tau(  76) = (   0.5424800   0.2464400   0.4050200  )
        77           C   tau(  77) = (   0.4937900   0.6696500   0.4227800  )
        78           C   tau(  78) = (   0.4900800   0.6910900   0.4638500  )
        79           C   tau(  79) = (   0.4927200   0.6943700   0.3834100  )
        80           C   tau(  80) = (   0.4852500   0.7373300   0.4656000  )
        81           C   tau(  81) = (   0.4879200   0.7406100   0.3851700  )
        82           C   tau(  82) = (   0.4842000   0.7620900   0.4262300  )
        83           C   tau(  83) = (   0.3446200   0.4871200   0.4109100  )
        84           C   tau(  84) = (   0.3202000   0.4837400   0.4503300  )
        85           C   tau(  85) = (   0.3228900   0.4849900   0.3698500  )
        86           C   tau(  86) = (   0.2740600   0.4782000   0.4487100  )
        87           C   tau(  87) = (   0.2767400   0.4795200   0.3681900  )
        88           C   tau(  88) = (   0.2523300   0.4761100   0.4076200  )
        89           N   tau(  89) = (   0.4969500   0.4288900   0.5362600  )
        90           N   tau(  90) = (   0.5548900   0.5063600   0.5375300  )
        91           N   tau(  91) = (   0.4779300   0.5640500   0.5324000  )
        92           N   tau(  92) = (   0.4213100   0.4865500   0.5296100  )
        93           N   tau(  93) = (   0.4671100   0.4517400   0.4134800  )
        94           N   tau(  94) = (   0.5633800   0.4611800   0.4151000  )
        95           N   tau(  95) = (   0.5539500   0.5569400   0.4194900  )
        96           N   tau(  96) = (   0.4585400   0.5466600   0.4162600  )
        97           Zn  tau(  97) = (   0.4878600   0.4964600   0.5344000  )
        98           Zn  tau(  98) = (   0.5111300   0.5040400   0.4156100  )
        99           H   tau(  99) = (   0.6499100   0.5646600   0.5405400  )
       100           H   tau( 100) = (   0.6617500   0.4767800   0.5454300  )
       101           H   tau( 101) = (   0.5550300   0.3322200   0.5418100  )
       102           H   tau( 102) = (   0.4680100   0.3210500   0.5388100  )
       103           H   tau( 103) = (   0.3247000   0.4289100   0.5212000  )
       104           H   tau( 104) = (   0.3128800   0.5155700   0.5229900  )
       105           H   tau( 105) = (   0.4195300   0.6590900   0.5271900  )
       106           H   tau( 106) = (   0.5063300   0.6728600   0.5328100  )
       107           H   tau( 107) = (   0.5953800   0.6322500   0.4648700  )
       108           H   tau( 108) = (   0.5889200   0.6346100   0.6087200  )
       109           H   tau( 109) = (   0.6477700   0.6968300   0.4661700  )
       110           H   tau( 110) = (   0.6412700   0.6991900   0.6100400  )
       111           H   tau( 111) = (   0.6225100   0.3963900   0.6158800  )
       112           H   tau( 112) = (   0.6299500   0.3940200   0.4720500  )
       113           H   tau( 113) = (   0.6913500   0.3499100   0.6201900  )
       114           H   tau( 114) = (   0.6987400   0.3475300   0.4763800  )
       115           H   tau( 115) = (   0.3454600   0.5993000   0.5957200  )
       116           H   tau( 116) = (   0.3554000   0.5978200   0.4520300  )
       117           H   tau( 117) = (   0.2787700   0.6487000   0.5906100  )
       118           H   tau( 118) = (   0.2887300   0.6472500   0.4469200  )
       119           H   tau( 119) = (   0.3793600   0.3600600   0.6010400  )
       120           H   tau( 120) = (   0.3919700   0.3562100   0.4575900  )
       121           H   tau( 121) = (   0.3310900   0.2923800   0.5985999  )
       122           H   tau( 122) = (   0.3436900   0.2885800   0.4551400  )
       123           H   tau( 123) = (   0.2762300   0.2564900   0.5225900  )
       124           H   tau( 124) = (   0.7305100   0.2883600   0.5519600  )
       125           H   tau( 125) = (   0.6610100   0.7661400   0.5381000  )
       126           H   tau( 126) = (   0.2508300   0.7098200   0.5166200  )
       127           H   tau( 127) = (   0.6705500   0.4303600   0.4144200  )
       128           H   tau( 128) = (   0.6137400   0.3621100   0.4129200  )
       129           H   tau( 129) = (   0.4350300   0.3435900   0.4085400  )
       130           H   tau( 130) = (   0.3680300   0.4002300   0.4115500  )
       131           H   tau( 131) = (   0.3507400   0.5796200   0.4117400  )
       132           H   tau( 132) = (   0.4067100   0.6463800   0.4198100  )
       133           H   tau( 133) = (   0.5846100   0.6641900   0.4247000  )
       134           H   tau( 134) = (   0.6534000   0.6092000   0.4244700  )
       135           H   tau( 135) = (   0.6831300   0.5232700   0.3475100  )
       136           H   tau( 136) = (   0.6814000   0.5154100   0.4912900  )
       137           H   tau( 137) = (   0.7661500   0.5281100   0.3487800  )
       138           H   tau( 138) = (   0.7643800   0.5202800   0.4926000  )
       139           H   tau( 139) = (   0.5283800   0.3299100   0.4810400  )
       140           H   tau( 140) = (   0.5307800   0.3370500   0.3372000  )
       141           H   tau( 141) = (   0.5405900   0.2477300   0.4771500  )
       142           H   tau( 142) = (   0.5429500   0.2549000   0.3333300  )
       143           H   tau( 143) = (   0.4909100   0.6715900   0.4948700  )
       144           H   tau( 144) = (   0.4956600   0.6774600   0.3510300  )
       145           H   tau( 145) = (   0.4823100   0.7542300   0.4979800  )
       146           H   tau( 146) = (   0.4870800   0.7601100   0.3541400  )
       147           H   tau( 147) = (   0.3373500   0.4853600   0.4827000  )
       148           H   tau( 148) = (   0.3421400   0.4876700   0.3387500  )
       149           H   tau( 149) = (   0.2548100   0.4755200   0.4797800  )
       150           H   tau( 150) = (   0.2596400   0.4778700   0.3358200  )
       151           H   tau( 151) = (   0.1897000   0.4990500   0.4061900  )
       152           H   tau( 152) = (   0.5213500   0.1831900   0.4025300  )
       153           H   tau( 153) = (   0.8278200   0.5579900   0.4238400  )
       154           H   tau( 154) = (   0.5080100   0.8242900   0.4303300  )
       155           O   tau( 155) = (   0.3068600   0.2476700   0.5253500  )
       156           O   tau( 156) = (   0.7385800   0.3193200   0.5510300  )
       157           O   tau( 157) = (   0.6776700   0.7388300   0.5389100  )
       158           O   tau( 158) = (   0.2415700   0.6792300   0.5155200  )
       159           O   tau( 159) = (   0.2050300   0.4704600   0.4059800  )
       160           O   tau( 160) = (   0.5494800   0.1993300   0.4028000  )
       161           O   tau( 161) = (   0.8177700   0.5272400   0.4214800  )
       162           O   tau( 162) = (   0.4792600   0.8094600   0.4280100  )

     number of k points=     1  gaussian smearing, width (Ry)=  0.0100
                       cart. coord. in units 2pi/alat
        k(    1) = (   0.0000000   0.0000000   0.0000000), wk =   2.0000000

     Dense  grid: 10074035 G-vectors     FFT dimensions: ( 360, 360, 360)

     Smooth grid:  2548493 G-vectors     FFT dimensions: ( 216, 216, 216)

     Estimated max dynamical RAM per process >       1.87 GB

     Estimated total dynamical RAM >     119.67 GB

     Check: negative core charge=   -0.000001

     Initial potential from superposition of free atoms

     starting charge  535.99546, renormalised to  536.00000

     negative rho (up, down):  2.640E-02 0.000E+00
     Starting wfcs are  498 randomized atomic wfcs
     Checking if some PAW data can be deallocated... 

     total cpu time spent up to now is       36.8 secs

     Self-consistent Calculation

     iteration #  1     ecut=    35.00 Ry     beta= 0.70
     Davidson diagonalization with overlap
     ethr =  1.00E-02,  avg # of iterations =  4.0

     negative rho (up, down):  4.430E-02 0.000E+00

     total cpu time spent up to now is       66.7 secs

     total energy              =   -3099.71209094 Ry
     Harris-Foulkes estimate   =   -3111.67536986 Ry
     estimated scf accuracy    <      18.21091172 Ry

     iteration #  2     ecut=    35.00 Ry     beta= 0.70
     Davidson diagonalization with overlap
     ethr =  3.40E-03,  avg # of iterations =  6.0

     negative rho (up, down):  4.810E-02 0.000E+00

     total cpu time spent up to now is       98.7 secs

     total energy              =   -3102.87878319 Ry
     Harris-Foulkes estimate   =   -3106.32675842 Ry
     estimated scf accuracy    <       5.76003997 Ry

     iteration #  3     ecut=    35.00 Ry     beta= 0.70
     Davidson diagonalization with overlap
     ethr =  1.07E-03,  avg # of iterations =  4.0

     negative rho (up, down):  5.008E-02 0.000E+00

     total cpu time spent up to now is      128.0 secs

     total energy              =   -3104.15429682 Ry
     Harris-Foulkes estimate   =   -3104.91257841 Ry
     estimated scf accuracy    <       1.44764846 Ry

     iteration #  4     ecut=    35.00 Ry     beta= 0.70
     Davidson diagonalization with overlap
     ethr =  2.70E-04,  avg # of iterations = 12.0

     negative rho (up, down):  4.994E-02 0.000E+00

     total cpu time spent up to now is      159.3 secs

     total energy              =   -3104.36755885 Ry
     Harris-Foulkes estimate   =   -3104.76719505 Ry
     estimated scf accuracy    <       1.09591934 Ry

     iteration #  5     ecut=    35.00 Ry     beta= 0.70
     Davidson diagonalization with overlap
     ethr =  2.04E-04,  avg # of iterations =  7.0

     negative rho (up, down):  4.910E-02 0.000E+00

     total cpu time spent up to now is      186.3 secs

     total energy              =   -3104.53340300 Ry
     Harris-Foulkes estimate   =   -3104.64276468 Ry
     estimated scf accuracy    <       0.33617076 Ry

     iteration #  6     ecut=    35.00 Ry     beta= 0.70
     Davidson diagonalization with overlap
     ethr =  6.27E-05,  avg # of iterations = 11.0

     negative rho (up, down):  4.900E-02 0.000E+00

     total cpu time spent up to now is      213.9 secs

     total energy              =   -3104.58584872 Ry
     Harris-Foulkes estimate   =   -3104.59496343 Ry
     estimated scf accuracy    <       0.02099390 Ry

     iteration #  7     ecut=    35.00 Ry     beta= 0.70
     Davidson diagonalization with overlap
     ethr =  3.92E-06,  avg # of iterations = 14.0

     negative rho (up, down):  4.913E-02 0.000E+00

     total cpu time spent up to now is      248.2 secs

     total energy              =   -3104.59052502 Ry
     Harris-Foulkes estimate   =   -3104.59192846 Ry
     estimated scf accuracy    <       0.00294698 Ry

     iteration #  8     ecut=    35.00 Ry     beta= 0.70
     Davidson diagonalization with overlap
     ethr =  5.50E-07,  avg # of iterations =  8.0

     negative rho (up, down):  4.918E-02 0.000E+00

     total cpu time spent up to now is      276.5 secs

     total energy              =   -3104.59104663 Ry
     Harris-Foulkes estimate   =   -3104.59153850 Ry
     estimated scf accuracy    <       0.00116817 Ry

     iteration #  9     ecut=    35.00 Ry     beta= 0.70
     Davidson diagonalization with overlap
     ethr =  2.18E-07,  avg # of iterations =  4.0

     negative rho (up, down):  4.920E-02 0.000E+00

     total cpu time spent up to now is      302.1 secs

     total energy              =   -3104.59123135 Ry
     Harris-Foulkes estimate   =   -3104.59139671 Ry
     estimated scf accuracy    <       0.00048013 Ry

     iteration # 10     ecut=    35.00 Ry     beta= 0.70
     Davidson diagonalization with overlap
     ethr =  8.96E-08,  avg # of iterations =  2.0

     negative rho (up, down):  4.921E-02 0.000E+00

     total cpu time spent up to now is      326.4 secs

     total energy              =   -3104.59130855 Ry
     Harris-Foulkes estimate   =   -3104.59134069 Ry
     estimated scf accuracy    <       0.00008820 Ry

     iteration # 11     ecut=    35.00 Ry     beta= 0.70
     Davidson diagonalization with overlap
     ethr =  1.65E-08,  avg # of iterations =  2.0

     negative rho (up, down):  4.921E-02 0.000E+00

     total cpu time spent up to now is      351.2 secs

     total energy              =   -3104.59132374 Ry
     Harris-Foulkes estimate   =   -3104.59133005 Ry
     estimated scf accuracy    <       0.00001518 Ry

     iteration # 12     ecut=    35.00 Ry     beta= 0.70
     Davidson diagonalization with overlap
     ethr =  2.83E-09,  avg # of iterations =  3.0

     negative rho (up, down):  4.922E-02 0.000E+00

     total cpu time spent up to now is      377.6 secs

     total energy              =   -3104.59132662 Ry
     Harris-Foulkes estimate   =   -3104.59132767 Ry
     estimated scf accuracy    <       0.00000238 Ry

     iteration # 13     ecut=    35.00 Ry     beta= 0.70
     Davidson diagonalization with overlap
     ethr =  4.45E-10,  avg # of iterations =  3.0

     negative rho (up, down):  4.922E-02 0.000E+00

     total cpu time spent up to now is      404.3 secs

     total energy              =   -3104.59132715 Ry
     Harris-Foulkes estimate   =   -3104.59132727 Ry
     estimated scf accuracy    <       0.00000032 Ry

     iteration # 14     ecut=    35.00 Ry     beta= 0.70
     Davidson diagonalization with overlap
     ethr =  6.04E-11,  avg # of iterations =  3.0

     negative rho (up, down):  4.922E-02 0.000E+00

     total cpu time spent up to now is      431.4 secs

     total energy              =   -3104.59132720 Ry
     Harris-Foulkes estimate   =   -3104.59132725 Ry
     estimated scf accuracy    <       0.00000011 Ry

     iteration # 15     ecut=    35.00 Ry     beta= 0.70
     Davidson diagonalization with overlap
     ethr =  2.05E-11,  avg # of iterations =  3.0

     negative rho (up, down):  4.922E-02 0.000E+00

     total cpu time spent up to now is      458.9 secs

     total energy              =   -3104.59132721 Ry
     Harris-Foulkes estimate   =   -3104.59132725 Ry
     estimated scf accuracy    <       0.00000012 Ry

     iteration # 16     ecut=    35.00 Ry     beta= 0.70
     Davidson diagonalization with overlap
     ethr =  2.05E-11,  avg # of iterations =  2.0

     negative rho (up, down):  4.922E-02 0.000E+00

     total cpu time spent up to now is      482.9 secs

     End of self-consistent calculation

          k = 0.0000 0.0000 0.0000 (318742 PWs)   bands (ev):

  -128.5995-128.5955 -82.9711 -82.9669 -82.6810 -82.6797 -82.6773 -82.6755
   -25.5557 -25.5238 -25.5095 -25.4656 -25.4104 -25.3996 -25.3705 -25.3508
   -23.5316 -23.4635 -23.2813 -23.2662 -23.2110 -23.1921 -22.9570 -22.9196
   -21.2183 -21.1817 -21.1315 -21.1069 -21.0868 -21.0739 -21.0358 -21.0142
   -20.1103 -20.0953 -19.7730 -19.6673 -19.6213 -19.5982 -19.5265 -19.4757
   -19.2139 -19.0535 -19.0253 -18.9559 -18.6825 -18.6736 -18.5807 -18.4876
   -18.2131 -18.1895 -18.1856 -18.1744 -18.1556 -18.1063 -18.0892 -18.0203
   -17.8276 -17.8241 -17.7657 -17.7168 -17.6532 -17.6235 -17.4303 -17.3559
   -17.1517 -17.1248 -16.0405 -16.0022 -15.9598 -15.9531 -15.1847 -15.0403
   -14.9255 -14.8859 -14.8554 -14.8149 -14.7806 -14.7515 -14.7439 -14.6694
   -14.6245 -14.6128 -14.5561 -14.5366 -14.4588 -14.4368 -14.4007 -14.3837
   -14.2138 -14.1741 -13.9460 -13.8734 -13.6796 -13.6307 -13.4651 -13.3857
   -13.3009 -13.2528 -13.2104 -13.1672 -13.1513 -13.0480 -13.0216 -12.9427
   -12.9273 -12.9065 -12.7895 -12.7707 -12.5226 -12.5065 -12.4798 -12.4540
   -12.3820 -12.3768 -12.1651 -12.1407 -12.1337 -12.1131 -11.6158 -11.6004
   -11.3538 -11.3137 -11.2008 -11.1719 -11.1691 -11.1531 -11.1283 -11.0894
   -11.0191 -10.9896 -10.8703 -10.8594 -10.8458 -10.8242 -10.7726 -10.7634
   -10.7543 -10.7068 -10.5777 -10.5514 -10.5094 -10.5027 -10.4843 -10.4596
   -10.2644 -10.2364 -10.2239 -10.2049 -10.1799 -10.1664 -10.1575 -10.0897
   -10.0708 -10.0321  -9.9962  -9.9706  -9.9591  -9.9412  -9.9258  -9.9074
    -9.8929  -9.8490  -9.8425  -9.8276  -9.7870  -9.7688  -9.7254  -9.6954
    -9.6784  -9.6461  -9.6323  -9.5856  -9.5735  -9.5445  -9.5292  -9.4979
    -9.4680  -9.4563  -9.2687  -9.2614  -9.1859  -9.1725  -9.1596  -9.1502
    -8.9656  -8.9299  -8.9124  -8.8917  -8.8831  -8.8477  -8.8407  -8.8076
    -8.7671  -8.7562  -8.7161  -8.6835  -8.4980  -8.4722  -8.4493  -8.4063
    -8.3900  -8.3647  -8.3510  -8.3304  -8.3039  -8.2844  -8.2753  -8.2378
    -8.2065  -8.1844  -8.1516  -8.1260  -8.1128  -8.1032  -8.0414  -8.0219
    -7.9708  -7.9052  -7.7919  -7.7172  -7.4952  -7.3863  -7.3793  -7.3460
    -7.3262  -7.3074  -6.8527  -6.8445  -6.6352  -6.6099  -6.5600  -6.5499
    -6.5133  -6.5126  -6.4730  -6.4516  -6.3628  -6.2715  -6.1921  -6.1356
    -6.1186  -6.0951  -6.0815  -6.0508  -6.0058  -5.9847  -5.8219  -5.7916
    -5.7694  -5.7620  -5.7447  -5.7329  -5.7229  -5.6979  -5.6613  -5.6504
    -5.5651  -5.5143  -5.3813  -5.2513  -5.0482  -4.9668  -4.9604  -4.8494
    -4.7578  -4.6313  -4.5101  -4.4730  -2.9145  -2.8955  -2.6335  -2.5919
    -1.7361  -1.5972  -1.1090  -1.0394  -1.0024  -0.9768  -0.9745  -0.9676
    -0.9639  -0.9319  -0.9193  -0.9033  -0.8811  -0.8709  -0.8541  -0.7751
    -0.7450  -0.7026  -0.5595  -0.4301  -0.3756  -0.2972  -0.2520  -0.2356
    -0.1948  -0.1697  -0.1461  -0.0854  -0.0291   0.0521   0.0656   0.0779
     0.0914   0.0976   0.1079   0.1285   0.1837   0.2022   0.2203   0.2220
     0.2326   0.2505   0.2632   0.2717   0.2971   0.3135   0.3307   0.3380
     0.3547   0.3601

     the Fermi energy is    -3.6677 ev

!    total energy              =   -3104.59132723 Ry
     Harris-Foulkes estimate   =   -3104.59132723 Ry
     estimated scf accuracy    <          7.9E-09 Ry

     The total energy is the sum of the following terms:

     one-electron contribution =  -26112.22709467 Ry
     hartree contribution      =   13123.29550679 Ry
     xc contribution           =    -633.35506662 Ry
     ewald contribution        =   11136.56609116 Ry
     one-center paw contrib.   =    -618.87076389 Ry
     smearing contrib. (-TS)   =      -0.00000000 Ry

     convergence has been achieved in  16 iterations

     negative rho (up, down):  4.922E-02 0.000E+00

     Forces acting on atoms (cartesian axes, Ry/au):

     atom    1 type  1   force =     0.01254890    0.04843787    0.01144936
     atom    2 type  1   force =    -0.02916648    0.05951368    0.01927547
     atom    3 type  1   force =    -0.12229249   -0.04475149   -0.00514357
     atom    4 type  1   force =     0.08774097    0.02834922    0.00399010
     atom    5 type  1   force =    -0.00397112    0.01547945    0.00006556
     atom    6 type  1   force =    -0.02943131    0.05184437    0.00236929
     atom    7 type  1   force =    -0.02542227   -0.05637747    0.01027186
     atom    8 type  1   force =     0.01211540   -0.03963165    0.00235672
     atom    9 type  1   force =     0.06529607    0.01464882    0.00451638
     atom   10 type  1   force =    -0.10370428   -0.00671335   -0.00013900
     atom   11 type  1   force =     0.02684407    0.04888444    0.00459929
     atom   12 type  1   force =    -0.01673361   -0.09162092    0.01089884
     atom   13 type  1   force =    -0.02570248    0.05447245   -0.00208522
     atom   14 type  1   force =    -0.06170365    0.10406548   -0.00243089
     atom   15 type  1   force =     0.10065119   -0.03292155    0.12558800
     atom   16 type  1   force =     0.08434953    0.02677379    0.14872454
     atom   17 type  1   force =     0.02192083   -0.02546186    0.00429345
     atom   18 type  1   force =     0.01256374   -0.07547879    0.00233346
     atom   19 type  1   force =    -0.02092288   -0.10248625    0.09208634
     atom   20 type  1   force =     0.01815161   -0.05678237    0.03016002
     atom   21 type  1   force =    -0.03353885   -0.02772041    0.00455325
     atom   22 type  1   force =     0.00963521    0.04208600    0.11212964
     atom   23 type  1   force =    -0.00078416   -0.00294264    0.01144867
     atom   24 type  1   force =     0.00330930    0.00049912   -0.00731996
     atom   25 type  1   force =     0.00648480    0.00606235    0.01868595
     atom   26 type  1   force =     0.01609343    0.03851722   -0.00383981
     atom   27 type  1   force =    -0.04634693    0.01984368    0.00241418
     atom   28 type  1   force =    -0.00199134    0.00211207    0.01017524
     atom   29 type  1   force =     0.00143425   -0.00399401    0.00615880
     atom   30 type  1   force =     0.00877818   -0.00360726    0.01609755
     atom   31 type  1   force =     0.00941952   -0.00362628   -0.01130204
     atom   32 type  1   force =     0.02502339   -0.03384278    0.00189895
     atom   33 type  1   force =     0.04202805   -0.02848594    0.00482621
     atom   34 type  1   force =    -0.00138976   -0.00074326    0.01099734
     atom   35 type  1   force =    -0.02738729    0.01486045    0.02608352
     atom   36 type  1   force =    -0.00951121    0.00413240    0.01511917
     atom   37 type  1   force =    -0.00776926    0.00260170   -0.01033287
     atom   38 type  1   force =    -0.02367576    0.03644210   -0.00181376
     atom   39 type  1   force =     0.02816576    0.04719325    0.00142329
     atom   40 type  1   force =     0.00029068    0.00033637    0.01021554
     atom   41 type  1   force =    -0.00322381   -0.00775014   -0.00704480
     atom   42 type  1   force =    -0.00593611   -0.00945124    0.01499612
     atom   43 type  1   force =    -0.00295447   -0.01007302   -0.01059976
     atom   44 type  1   force =    -0.03489904   -0.02352860   -0.00181601
     atom   45 type  1   force =     0.04948522    0.02590899   -0.01610868
     atom   46 type  1   force =     0.02721728    0.06124473   -0.01043730
     atom   47 type  1   force =    -0.11502085    0.05741044   -0.00168185
     atom   48 type  1   force =     0.07802839   -0.04550776   -0.00088991
     atom   49 type  1   force =     0.01110300    0.01449582   -0.00187465
     atom   50 type  1   force =     0.01148771    0.05675277   -0.02820972
     atom   51 type  1   force =    -0.05815446   -0.01067090   -0.02193434
     atom   52 type  1   force =    -0.01824008   -0.03668432   -0.00507943
     atom   53 type  1   force =     0.05760861   -0.04275304   -0.00087295
     atom   54 type  1   force =    -0.06529255    0.09470895    0.00036673
     atom   55 type  1   force =     0.04009581    0.00504876   -0.01157492
     atom   56 type  1   force =    -0.08506808   -0.04749673   -0.00815613
     atom   57 type  1   force =     0.02701922    0.05522221    0.00202824
     atom   58 type  1   force =     0.04714256    0.09386916   -0.00086695
     atom   59 type  1   force =     0.08911713   -0.04840958   -0.05461677
     atom   60 type  1   force =     0.04240407   -0.04272666   -0.02403127
     atom   61 type  1   force =     0.00008635   -0.03547645   -0.00283669
     atom   62 type  1   force =    -0.04578202   -0.05229487   -0.00430542
     atom   63 type  1   force =    -0.02824753   -0.07196134   -0.09221737
     atom   64 type  1   force =    -0.04488004   -0.06949175   -0.14571623
     atom   65 type  1   force =    -0.05342678    0.00523247    0.00052373
     atom   66 type  1   force =     0.00022763   -0.00017659   -0.00980341
     atom   67 type  1   force =     0.00513793   -0.00070814    0.00746877
     atom   68 type  1   force =     0.01020884   -0.00101654   -0.01615647
     atom   69 type  1   force =     0.00908819   -0.00267163    0.01463328
     atom   70 type  1   force =     0.04128442    0.02169445    0.00190189
     atom   71 type  1   force =    -0.01691366    0.04894226    0.00267288
     atom   72 type  1   force =     0.00459756   -0.00451047   -0.00152430
     atom   73 type  1   force =     0.00067170    0.00268227   -0.01017410
     atom   74 type  1   force =     0.00341821   -0.00857374    0.01035939
     atom   75 type  1   force =     0.00417005   -0.00957606   -0.01724046
     atom   76 type  1   force =    -0.01293423   -0.04545600   -0.00043389
     atom   77 type  1   force =     0.00686155   -0.04842860   -0.00487044
     atom   78 type  1   force =     0.00226371    0.04246920   -0.05819471
     atom   79 type  1   force =    -0.00162832   -0.00042013   -0.00981083
     atom   80 type  1   force =    -0.00199316    0.00532076    0.00766238
     atom   81 type  1   force =    -0.00234767    0.01022106   -0.01782892
     atom   82 type  1   force =     0.01331138    0.04487808    0.00558600
     atom   83 type  1   force =     0.04242708    0.00974865   -0.00579900
     atom   84 type  1   force =    -0.03845836    0.01318583   -0.11629521
     atom   85 type  1   force =     0.00499133   -0.00230179   -0.01321130
     atom   86 type  1   force =    -0.00413112   -0.00229241    0.00413912
     atom   87 type  1   force =    -0.00860597   -0.00281283   -0.01716075
     atom   88 type  1   force =    -0.04657041    0.01113709    0.00410326
     atom   89 type  2   force =     0.05152678   -0.03107586    0.00430932
     atom   90 type  2   force =     0.01330612    0.00880209    0.00236406
     atom   91 type  2   force =     0.03456188    0.03570069    0.00032487
     atom   92 type  2   force =    -0.04803518   -0.01306262   -0.00433414
     atom   93 type  2   force =     0.00975631   -0.05611058   -0.00302862
     atom   94 type  2   force =     0.01494184   -0.00581077    0.00063768
     atom   95 type  2   force =     0.04539696   -0.00133226    0.00224194
     atom   96 type  2   force =    -0.04666206    0.02757866    0.00019638
     atom   97 type  4   force =     0.00041590    0.00012462   -0.00325960
     atom   98 type  4   force =    -0.00041111   -0.00017974    0.00320053
     atom   99 type  3   force =     0.01287903    0.01879738    0.00178324
     atom  100 type  3   force =     0.01664469   -0.01501230    0.00306755
     atom  101 type  3   force =     0.02129092   -0.01153983    0.00727560
     atom  102 type  3   force =    -0.01545420   -0.01784374   -0.00230875
     atom  103 type  3   force =    -0.01151220   -0.01942196   -0.00446847
     atom  104 type  3   force =    -0.01610943    0.01994759    0.01345694
     atom  105 type  3   force =    -0.01923938    0.01246940   -0.00355236
     atom  106 type  3   force =     0.02843201   -0.00195967    0.06942566
     atom  107 type  3   force =     0.01897629    0.02117319    0.13707013
     atom  108 type  3   force =     0.00374228    0.00387438   -0.00691504
     atom  109 type  3   force =    -0.00051445    0.00211248    0.00675462
     atom  110 type  3   force =    -0.00114397   -0.00186223   -0.01140647
     atom  111 type  3   force =     0.00500881   -0.00327138   -0.00854405
     atom  112 type  3   force =     0.01103994   -0.00859880    0.03684668
     atom  113 type  3   force =    -0.00124926    0.00093621   -0.01034845
     atom  114 type  3   force =    -0.00170147    0.00070186    0.00989298
     atom  115 type  3   force =    -0.00339621    0.00302305   -0.00877896
     atom  116 type  3   force =    -0.03386482    0.02919330    0.08146561
     atom  117 type  3   force =     0.00233531   -0.00135426   -0.01047056
     atom  118 type  3   force =    -0.00027257   -0.00046564    0.00982331
     atom  119 type  3   force =    -0.00250919   -0.00442450   -0.00961652
     atom  120 type  3   force =    -0.01226628   -0.01391404    0.03264648
     atom  121 type  3   force =     0.00214435    0.00144540   -0.01067313
     atom  122 type  3   force =    -0.00024851    0.00159571    0.01014251
     atom  123 type  3   force =    -0.02359540    0.01184847   -0.00222760
     atom  124 type  3   force =    -0.01092944   -0.02299411    0.00071944
     atom  125 type  3   force =    -0.01719836    0.01909522   -0.00024144
     atom  126 type  3   force =     0.01221731    0.02429726    0.00169645
     atom  127 type  3   force =     0.02271544    0.00213427    0.00215669
     atom  128 type  3   force =     0.00141307   -0.02228316   -0.00421298
     atom  129 type  3   force =     0.00740406   -0.02312987   -0.00227678
     atom  130 type  3   force =    -0.02350504    0.00237216   -0.00316422
     atom  131 type  3   force =    -0.01256642   -0.02392874   -0.04314734
     atom  132 type  3   force =     0.00019105    0.02427551    0.00191477
     atom  133 type  3   force =    -0.01016820    0.02345745   -0.02810144
     atom  134 type  3   force =     0.02248004    0.00120278    0.00501415
     atom  135 type  3   force =     0.00513450   -0.00008648    0.00920592
     atom  136 type  3   force =     0.01047641    0.00159195   -0.02042839
     atom  137 type  3   force =    -0.00222159   -0.00049374    0.01054876
     atom  138 type  3   force =    -0.00204250    0.00045873   -0.01123710
     atom  139 type  3   force =     0.00154473   -0.01158800   -0.03060203
     atom  140 type  3   force =     0.00057814   -0.00601244    0.00884935
     atom  141 type  3   force =    -0.00014836    0.00176776   -0.00932932
     atom  142 type  3   force =    -0.00060949    0.00133659    0.01079118
     atom  143 type  3   force =    -0.00706253    0.04881362   -0.11371666
     atom  144 type  3   force =    -0.00074022    0.00474051    0.00818166
     atom  145 type  3   force =     0.00098287    0.00099683   -0.00807654
     atom  146 type  3   force =     0.00012436   -0.00248022    0.01097121
     atom  147 type  3   force =    -0.03004834   -0.00383982   -0.14580933
     atom  148 type  3   force =    -0.00591410   -0.00090834    0.00745568
     atom  149 type  3   force =    -0.00172197    0.00165054   -0.00709726
     atom  150 type  3   force =     0.00143912    0.00056290    0.01085088
     atom  151 type  3   force =     0.00954701    0.00380659    0.00057280
     atom  152 type  3   force =    -0.00459516    0.00950793    0.00095977
     atom  153 type  3   force =    -0.01027138    0.00225130    0.00047346
     atom  154 type  3   force =     0.00380324   -0.00970359   -0.00015332
     atom  155 type  5   force =     0.05568581    0.01856141    0.00444200
     atom  156 type  5   force =    -0.02024249    0.05403005   -0.00267011
     atom  157 type  5   force =    -0.00216553   -0.05618307    0.00106368
     atom  158 type  5   force =     0.01678448   -0.05618320    0.00095901
     atom  159 type  5   force =     0.03662131   -0.01103453   -0.00092577
     atom  160 type  5   force =     0.01045413    0.03862978    0.00014247
     atom  161 type  5   force =    -0.03578770   -0.01765299   -0.00272199
     atom  162 type  5   force =    -0.01201796   -0.03604378   -0.00391646

     Total force =     0.733164     Total SCF correction =     0.000289

     BFGS Geometry Optimization

     number of scf cycles    =   1
     number of bfgs steps    =   0

     energy   new            =   -3104.5913272281 Ry

     new trust radius        =       0.1730626155 bohr
     new conv_thr            =       0.0000000100 Ry


ATOMIC_POSITIONS (angstrom)
C       14.564740590  10.593432215  16.152058738
C       15.899865762  10.773293283  16.212600141
C       16.112785604  12.171919532  16.175377141
C       17.436530524  12.814201761  16.233310471
C       17.612398573  14.211691370  16.215034693
C       18.900324624  14.841434860  16.280153775
C       18.717048114  16.163865329  16.215936636
C       17.311312194  16.403126832  16.130746121
C       16.736154192  17.700250824  16.079389967
C       15.300021059  17.923247449  16.012726442
C       13.144305270  17.589669534  15.891333839
C       11.648544957  15.549717300  15.826267417
C       11.852597831  16.982724578  15.819396548
C       11.931647833  13.405668079  15.843214628
C       10.561962314  13.589978668  15.787058306
C       10.371235848  14.973067081  15.812502639
C       13.951399005  11.886926162  16.057670996
C       12.555648444  12.077958343  15.930035812
C       14.689828091  19.179966613  16.009929992
C       13.353905418  18.990252066  15.893460993
C       17.653751004  18.873330989  16.103710474
C       18.170097734  19.432571953  14.965436451
C       18.056584039  19.447743823  17.325360378
C       19.045450205  20.494164121  14.923526443
C       18.938530607  20.536707057  17.350487181
C       19.437715278  21.075581438  16.143367060
C       18.640574261  11.948999821  16.311978529
C       19.178546230  11.569417659  17.559284505
C       19.305157972  11.526285462  15.144559095
C       20.338645213  10.786691121  17.635319455
C       20.463783593  10.747081054  15.208218218
C       20.986841807  10.360591173  16.457204882
C       10.653340289  17.854125889  15.728253920
C        9.988364571  18.295707682  16.893419543
C       10.141407272  18.278462809  14.490901807
C        8.864466887  19.127186774  16.810099721
C        9.032789687  19.101777762  14.386432080
C        8.381471326  19.546883327  15.552541198
C       11.669904680  10.889473591  15.884854171
C       11.144253822  10.329478002  17.071806834
C       11.354794035  10.260398802  14.656972050
C       10.332157747   9.188499620  17.033835607
C       10.544636562   9.124270588  14.613090850
C       10.017432226   8.581350203  15.800338011
C       12.107186451  12.272010448  12.337974654
C       13.140602763  11.406309316  12.303776817
C       14.314534586  12.191480295  12.354310002
C       15.680890844  11.647718330  12.351730082
C       16.832575454  12.460370860  12.404907979
C       18.162079035  11.932232271  12.392472058
C       19.017725986  12.966653205  12.427592846
C       18.245947767  14.161887496  12.480012083
C       18.814085164  15.459176066  12.555138052
C       18.012548670  16.683918818  12.610094064
C       16.297718789  18.036872689  12.628674819
C       13.786783908  17.775065812  12.553383962
C       14.987297954  18.587522333  12.627174298
C       12.406246769  16.111374419  12.418041227
C       11.634358753  17.288881755  12.394097049
C       12.483839268  18.332891028  12.521583202
C       12.646245695  13.597926671  12.385198889
C       11.842573197  14.768026748  12.379021671
C       18.554752048  17.959518698  12.640900668
C       17.471649507  18.820327550  12.620090293
C       20.292226764  15.573967905  12.579577147
C       21.031620457  15.678206552  11.379212260
C       21.004818875  15.545326271  13.800652305
C       22.429800286  15.759362073  11.397151367
C       22.399809263  15.626787233  13.825443601
C       23.128146776  15.745880207  12.623806439
C       15.856848676  10.175799128  12.281315426
C       15.950132921   9.398713165  13.453893373
C       15.987955446   9.521919397  11.036116097
C       16.154108840   8.018062970  13.395381955
C       16.194705695   8.137232566  10.967576743
C       16.267554499   7.369145722  12.150370397
C       14.817330975  20.063872689  12.680822672
C       14.703597902  20.755173735  13.884704683
C       14.780738330  20.830876675  11.497108332
C       14.556445265  22.122715627  13.972054756
C       14.636357669  22.223708751  11.545665342
C       14.533044077  22.886449456  12.789856985
C       10.361051446  14.618758765  12.324231301
C        9.585648712  14.519177638  13.448359224
C        9.689342296  14.548481944  11.088508883
C        8.219613906  14.344786910  13.463490329
C        8.297645918  14.384111513  11.036618923
C        7.545256002  14.289193492  12.230772353
N       14.935766798  12.850254363  16.090081393
N       16.653741298  15.195457866  16.127151006
N       14.356189362  16.940392994  15.972171915
N       12.613880877  14.589587561  15.886005471
N       14.018462818  13.522507560  12.402798324
N       16.909306879  13.832325070  12.453337448
N       16.642523038  16.707494998  12.585887384
N       13.731507501  16.414392999  12.487904919
Zn      14.636019083  14.893865948  16.030275094
Zn      15.333681451  15.121105886  12.469993645
H       19.504114290  16.949747144  16.217143650
H       19.861308989  14.295455834  16.364523277
H       16.662166669   9.960492387  16.258149083
H       14.032121990   9.622056499  16.163079262
H        9.734908004  12.857022341  15.633635386
H        9.377875257  15.477654812  15.696820106
H       12.575718958  19.779297520  15.813821172
H       15.204945574  20.184763985  16.021037476
H       17.871442823  18.978705370  14.018634390
H       17.669581327  19.040350235  18.257940716
H       19.432827765  20.906017875  13.988675391
H       19.237494638  20.974714551  18.295164955
H       18.677951547  11.889968861  18.471878685
H       18.904342082  11.816049710  14.180998421
H       20.739837923  10.497795422  18.600224835
H       20.961299620  10.426271410  14.296635139
H       10.362002802  17.980599732  17.866953376
H       10.644079510  17.950047428  13.604009746
H        8.364335791  19.460283357  17.712759219
H        8.661755762  19.417253593  13.412798271
H       11.379471193  10.799458657  18.026111156
H       11.752608965  10.678937010  13.744975774
H        9.933834741   8.772164872  17.952350021
H       10.310568496   8.658244411  13.659567187
H        8.274414853   7.700969942  15.676520207
H       21.909516390   8.638632041  16.559180713
H       19.821200021  22.994304755  16.142872238
H        7.531365123  21.307457554  15.499496724
H       20.128519493  12.911929405  12.433741270
H       18.412948766  10.851507257  12.385370587
H       13.054818057  10.295460200  12.254996182
H       11.028461670  12.008155294  12.344824569
H       10.515550139  17.375936454  12.329368410
H       12.201401102  19.404245045  12.595313254
H       17.532919219  19.938112150  12.726129360
H       19.613894923  18.276637485  12.736753375
H       20.496617058  15.698054236  10.430172564
H       20.447542877  15.463142421  14.727889762
H       22.983325388  15.843039725  10.468982164
H       22.930319155  15.608642751  14.772053582
H       15.852216435   9.891168895  14.415006104
H       15.923706937  10.108318353  10.120681877
H       16.217620493   7.432835458  14.309563137
H       16.288177474   7.647707291  10.005610448
H       14.723562672  20.173530057  14.785923733
H       14.869409294  20.326309571  10.535229546
H       14.469820113  22.627427499  14.935126081
H       14.612465809  22.801988526  10.630006714
H       10.104600103  14.558768053  14.403841028
H       10.261069394  14.629619326  10.166445374
H        7.643388772  14.266473427  14.389643292
H        7.789961552  14.336397874  10.080341038
H        5.696052059  14.973513360  12.186003112
H       15.638069347   5.500731381  12.076407889
H       24.829164621  16.740891334  12.715449546
H       15.242313586  24.723564080  12.909819869
O        9.235267664   7.439922273  15.762849607
O       22.146688134   9.608190472  16.529486039
O       20.328955051  22.135169201  16.167861878
O        7.255981962  20.347169131  15.466106486
O        6.170279162  14.107960778  12.178909106
O       16.489932090   6.000342000  12.084075393
O       24.514161963  15.807858441  12.642959585
O       14.371440369  24.264726452  12.838227499



     Writing output data file ZnTHPP_dimer.save/
     Message from routine punch:
     wavefunctions written to file
     NEW-OLD atomic charge density approx. for the potential

     Check: negative core charge=   -0.000001

     negative rho (up, down):  4.756E-02 0.000E+00

     total cpu time spent up to now is      528.1 secs

     Self-consistent Calculation

     iteration #  1     ecut=    35.00 Ry     beta= 0.70
     Davidson diagonalization with overlap
     c_bands:  4 eigenvalues not converged
     ethr =  1.00E-06,  avg # of iterations = 20.0

     negative rho (up, down):  4.888E-02 0.000E+00

     total cpu time spent up to now is      585.3 secs

     total energy              =   -3104.70218208 Ry
     Harris-Foulkes estimate   =   -3104.80965237 Ry
     estimated scf accuracy    <       0.18026823 Ry

     iteration #  2     ecut=    35.00 Ry     beta= 0.70
     Davidson diagonalization with overlap
     ethr =  3.36E-05,  avg # of iterations = 12.0

     negative rho (up, down):  5.115E-02 0.000E+00

     total cpu time spent up to now is      616.9 secs

     total energy              =   -3104.72520387 Ry
     Harris-Foulkes estimate   =   -3104.79307561 Ry
     estimated scf accuracy    <       0.12561241 Ry

     iteration #  3     ecut=    35.00 Ry     beta= 0.70
     Davidson diagonalization with overlap
     ethr =  2.34E-05,  avg # of iterations =  6.0

     negative rho (up, down):  5.056E-02 0.000E+00

     total cpu time spent up to now is      645.2 secs

     total energy              =   -3104.75290878 Ry
     Harris-Foulkes estimate   =   -3104.76528247 Ry
     estimated scf accuracy    <       0.02589653 Ry

     iteration #  4     ecut=    35.00 Ry     beta= 0.70
     Davidson diagonalization with overlap
     ethr =  4.83E-06,  avg # of iterations = 13.0

     negative rho (up, down):  5.025E-02 0.000E+00

     total cpu time spent up to now is      675.7 secs

     total energy              =   -3104.75568029 Ry
     Harris-Foulkes estimate   =   -3104.76478395 Ry
     estimated scf accuracy    <       0.03097228 Ry

     iteration #  5     ecut=    35.00 Ry     beta= 0.70
     Davidson diagonalization with overlap
     ethr =  4.83E-06,  avg # of iterations =  4.0

     negative rho (up, down):  4.989E-02 0.000E+00

     total cpu time spent up to now is      700.6 secs

     total energy              =   -3104.76003574 Ry
     Harris-Foulkes estimate   =   -3104.76070867 Ry
     estimated scf accuracy    <       0.00172378 Ry

     iteration #  6     ecut=    35.00 Ry     beta= 0.70
     Davidson diagonalization with overlap
     ethr =  3.22E-07,  avg # of iterations =  6.0

     negative rho (up, down):  4.982E-02 0.000E+00

     total cpu time spent up to now is      727.8 secs

     total energy              =   -3104.76037066 Ry
     Harris-Foulkes estimate   =   -3104.76057084 Ry
     estimated scf accuracy    <       0.00051313 Ry

     iteration #  7     ecut=    35.00 Ry     beta= 0.70
     Davidson diagonalization with overlap
     ethr =  9.57E-08,  avg # of iterations =  3.0

     negative rho (up, down):  4.980E-02 0.000E+00

     total cpu time spent up to now is      752.9 secs

     total energy              =   -3104.76046256 Ry
     Harris-Foulkes estimate   =   -3104.76049237 Ry
     estimated scf accuracy    <       0.00007260 Ry

     iteration #  8     ecut=    35.00 Ry     beta= 0.70
     Davidson diagonalization with overlap
     ethr =  1.35E-08,  avg # of iterations =  3.0

     negative rho (up, down):  4.980E-02 0.000E+00

     total cpu time spent up to now is      778.9 secs

     total energy              =   -3104.76047741 Ry
     Harris-Foulkes estimate   =   -3104.76048164 Ry
     estimated scf accuracy    <       0.00000975 Ry

     iteration #  9     ecut=    35.00 Ry     beta= 0.70
     Davidson diagonalization with overlap
     ethr =  1.82E-09,  avg # of iterations =  3.0

     negative rho (up, down):  4.980E-02 0.000E+00

     total cpu time spent up to now is      805.8 secs

     total energy              =   -3104.76047926 Ry
     Harris-Foulkes estimate   =   -3104.76048026 Ry
     estimated scf accuracy    <       0.00000223 Ry

     iteration # 10     ecut=    35.00 Ry     beta= 0.70
     Davidson diagonalization with overlap
     ethr =  4.16E-10,  avg # of iterations =  3.0

     negative rho (up, down):  4.980E-02 0.000E+00

     total cpu time spent up to now is      832.0 secs

     total energy              =   -3104.76047954 Ry
     Harris-Foulkes estimate   =   -3104.76048020 Ry
     estimated scf accuracy    <       0.00000207 Ry

     iteration # 11     ecut=    35.00 Ry     beta= 0.70
     Davidson diagonalization with overlap
     ethr =  3.87E-10,  avg # of iterations =  2.0

     negative rho (up, down):  4.980E-02 0.000E+00

     total cpu time spent up to now is      856.5 secs

     total energy              =   -3104.76047985 Ry
     Harris-Foulkes estimate   =   -3104.76047994 Ry
     estimated scf accuracy    <       0.00000023 Ry

     iteration # 12     ecut=    35.00 Ry     beta= 0.70
     Davidson diagonalization with overlap
     ethr =  4.32E-11,  avg # of iterations =  3.0

     negative rho (up, down):  4.980E-02 0.000E+00

     total cpu time spent up to now is      883.0 secs

     total energy              =   -3104.76047989 Ry
     Harris-Foulkes estimate   =   -3104.76047992 Ry
     estimated scf accuracy    <       0.00000007 Ry

     iteration # 13     ecut=    35.00 Ry     beta= 0.70
     Davidson diagonalization with overlap
     ethr =  1.32E-11,  avg # of iterations =  3.0

     negative rho (up, down):  4.980E-02 0.000E+00

     total cpu time spent up to now is      908.1 secs

     End of self-consistent calculation

          k = 0.0000 0.0000 0.0000 (318742 PWs)   bands (ev):

  -128.6549-128.6508 -83.0261 -83.0220 -82.7373 -82.7348 -82.7330 -82.7309
   -25.8012 -25.7898 -25.7829 -25.7754 -25.7459 -25.7172 -25.6914 -25.6823
   -23.9194 -23.8581 -23.6911 -23.6779 -23.6441 -23.6322 -23.4263 -23.4216
   -21.0914 -21.0578 -21.0006 -20.9822 -20.9362 -20.9331 -20.8735 -20.8492
   -19.8473 -19.8440 -19.4600 -19.4498 -19.4286 -19.4221 -19.2025 -19.1653
   -19.0411 -18.9966 -18.9284 -18.9100 -18.7656 -18.7457 -18.6924 -18.6448
   -18.1345 -18.1249 -18.1180 -18.0900 -18.0837 -18.0397 -18.0096 -17.9677
   -17.7348 -17.7004 -17.6456 -17.6105 -17.5569 -17.5253 -17.4294 -17.3572
   -16.9020 -16.8675 -15.9267 -15.8977 -15.8355 -15.8212 -15.0347 -14.9900
   -14.9269 -14.8427 -14.7909 -14.7401 -14.7093 -14.6904 -14.6810 -14.6339
   -14.6026 -14.5669 -14.5223 -14.4972 -14.4542 -14.4065 -14.2337 -14.2222
   -13.9474 -13.9216 -13.7468 -13.6976 -13.5588 -13.5198 -13.3941 -13.3453
   -13.2721 -13.2446 -13.1867 -13.1321 -13.1029 -13.0887 -13.0291 -13.0139
   -12.9646 -12.9226 -12.7945 -12.7768 -12.5475 -12.5185 -12.5005 -12.4421
   -12.3601 -12.3460 -12.0650 -12.0452 -12.0409 -12.0123 -11.7185 -11.7138
   -11.2949 -11.2208 -11.1684 -11.1494 -11.1261 -11.0975 -11.0896 -11.0524
   -10.8680 -10.8453 -10.8138 -10.7919 -10.7765 -10.7738 -10.7592 -10.7342
   -10.6840 -10.6418 -10.5638 -10.5427 -10.5408 -10.4847 -10.3103 -10.3082
   -10.2370 -10.1976 -10.1836 -10.1796 -10.1772 -10.1388 -10.1249 -10.0577
   -10.0354  -9.9821  -9.9645  -9.9479  -9.8906  -9.8766  -9.8584  -9.8475
    -9.8433  -9.8178  -9.8098  -9.8055  -9.7784  -9.7689  -9.7488  -9.7121
    -9.6957  -9.6750  -9.6558  -9.6339  -9.6012  -9.5845  -9.4975  -9.4908
    -9.4616  -9.4342  -9.3479  -9.3119  -9.2736  -9.2489  -9.2087  -9.1739
    -9.0457  -9.0241  -8.9630  -8.9217  -8.8098  -8.7608  -8.7207  -8.6969
    -8.6831  -8.6737  -8.6132  -8.5789  -8.5513  -8.5232  -8.4505  -8.4162
    -8.4060  -8.3982  -8.3214  -8.2900  -8.2718  -8.2707  -8.2282  -8.2092
    -8.1856  -8.1654  -8.1499  -8.1182  -8.1075  -8.0436  -8.0177  -7.9838
    -7.9629  -7.9602  -7.8728  -7.7914  -7.4171  -7.3985  -7.3918  -7.3654
    -7.2189  -7.1098  -6.7079  -6.6937  -6.6016  -6.5756  -6.5513  -6.5316
    -6.5046  -6.4949  -6.4769  -6.4532  -6.2455  -6.1376  -6.1084  -6.0489
    -6.0285  -5.9982  -5.9891  -5.9651  -5.9224  -5.8978  -5.8380  -5.7759
    -5.6506  -5.6315  -5.6142  -5.5923  -5.5801  -5.5574  -5.5489  -5.5314
    -5.5094  -5.5023  -5.4630  -5.3003  -5.0662  -5.0452  -5.0313  -4.9188
    -4.8238  -4.6029  -4.4595  -4.3597  -2.8497  -2.8263  -2.6404  -2.5246
    -1.6238  -1.5308  -1.0779  -1.0129  -0.9903  -0.9826  -0.9706  -0.9465
    -0.9304  -0.9193  -0.9086  -0.9043  -0.8944  -0.8799  -0.8589  -0.7787
    -0.7108  -0.6592  -0.5777  -0.4691  -0.4274  -0.3579  -0.3197  -0.2690
    -0.2294  -0.2230  -0.2013  -0.1364  -0.1289   0.0472   0.0813   0.0923
     0.1095   0.1281   0.1647   0.1901   0.2029   0.2156   0.2282   0.2445
     0.2536   0.2743   0.3144   0.3313   0.3391   0.3493   0.3567   0.3684
     0.3826   0.3898

     the Fermi energy is    -3.6409 ev

!    total energy              =   -3104.76047990 Ry
     Harris-Foulkes estimate   =   -3104.76047991 Ry
     estimated scf accuracy    <          8.9E-09 Ry

     The total energy is the sum of the following terms:

     one-electron contribution =  -26118.83197711 Ry
     hartree contribution      =   13127.30416059 Ry
     xc contribution           =    -633.74634466 Ry
     ewald contribution        =   11139.37471293 Ry
     one-center paw contrib.   =    -618.86103165 Ry
     smearing contrib. (-TS)   =      -0.00000000 Ry

     convergence has been achieved in  13 iterations

     negative rho (up, down):  4.980E-02 0.000E+00

     Forces acting on atoms (cartesian axes, Ry/au):

     atom    1 type  1   force =    -0.04993862   -0.04614730    0.01003858
     atom    2 type  1   force =     0.04233618   -0.04695062    0.02057020
     atom    3 type  1   force =     0.09814222    0.06859945    0.00621295
     atom    4 type  1   force =    -0.07970276   -0.01032905   -0.00399608
     atom    5 type  1   force =    -0.00110038   -0.01475960    0.00124455
     atom    6 type  1   force =     0.04946320   -0.06055179    0.01184510
     atom    7 type  1   force =     0.04110272    0.07055218    0.00607005
     atom    8 type  1   force =    -0.02303341    0.03107293   -0.00122641
     atom    9 type  1   force =    -0.05046868   -0.02948358   -0.00285048
     atom   10 type  1   force =     0.09740081   -0.05115179    0.01914903
     atom   11 type  1   force =    -0.05498547   -0.03223933   -0.00203025
     atom   12 type  1   force =     0.01617525    0.09973268    0.02276658
     atom   13 type  1   force =     0.04299987   -0.04272612    0.00116296
     atom   14 type  1   force =     0.07877817   -0.11116061    0.01864736
     atom   15 type  1   force =    -0.07304551    0.00424784    0.05708631
     atom   16 type  1   force =    -0.05438731   -0.01472357    0.06943142
     atom   17 type  1   force =    -0.03835773   -0.00560206   -0.00100356
     atom   18 type  1   force =     0.00995307    0.07088259   -0.00353157
     atom   19 type  1   force =     0.02649013    0.07102383    0.05812234
     atom   20 type  1   force =    -0.05480637    0.03854814    0.02040885
     atom   21 type  1   force =     0.00002874    0.00858785    0.06330430
     atom   22 type  1   force =    -0.00573503   -0.00025269   -0.00121321
     atom   23 type  1   force =     0.00261774    0.00436855    0.00048640
     atom   24 type  1   force =     0.01863246    0.02914628    0.03828322
     atom   25 type  1   force =    -0.00320558   -0.00474130   -0.02266587
     atom   26 type  1   force =    -0.01802023   -0.01502542    0.00365202
     atom   27 type  1   force =     0.02077382   -0.01171768    0.00837245
     atom   28 type  1   force =     0.00334051   -0.00355152   -0.01365865
     atom   29 type  1   force =     0.00195806   -0.00601913    0.02972221
     atom   30 type  1   force =    -0.00358882    0.00120664   -0.02136852
     atom   31 type  1   force =    -0.00190953   -0.00132970    0.02269183
     atom   32 type  1   force =    -0.02648798    0.01259562    0.00028421
     atom   33 type  1   force =    -0.02306533    0.02030530    0.01611967
     atom   34 type  1   force =     0.00137373   -0.00133530   -0.01371564
     atom   35 type  1   force =    -0.00846309    0.00356099    0.04169382
     atom   36 type  1   force =     0.00419110   -0.00128850   -0.02155562
     atom   37 type  1   force =    -0.01833958    0.01203129    0.02569605
     atom   38 type  1   force =     0.02419839   -0.01271253    0.00583090
     atom   39 type  1   force =    -0.01515053   -0.02767529    0.00105373
     atom   40 type  1   force =     0.00129810   -0.00016915   -0.01867128
     atom   41 type  1   force =    -0.00554859   -0.00270385    0.03222340
     atom   42 type  1   force =     0.00343560    0.00395765   -0.02163604
     atom   43 type  1   force =    -0.00395096   -0.00068944    0.02048105
     atom   44 type  1   force =     0.01268744    0.02614475    0.00342395
     atom   45 type  1   force =    -0.06883197    0.00512103   -0.01225654
     atom   46 type  1   force =    -0.00464842   -0.06471990   -0.01388675
     atom   47 type  1   force =     0.11953257   -0.02597640   -0.00240749
     atom   48 type  1   force =    -0.06393032    0.05239619    0.00180427
     atom   49 type  1   force =    -0.01382090   -0.00731638   -0.00491675
     atom   50 type  1   force =    -0.00447823   -0.07051729   -0.02538863
     atom   51 type  1   force =     0.07531657    0.01068807   -0.01865800
     atom   52 type  1   force =     0.00612748    0.03968838   -0.00119892
     atom   53 type  1   force =    -0.06309100    0.02378173    0.00250951
     atom   54 type  1   force =     0.03758122   -0.12167076   -0.01305057
     atom   55 type  1   force =    -0.04979313    0.01115797   -0.02289569
     atom   56 type  1   force =     0.08012994    0.06192088    0.00507505
     atom   57 type  1   force =    -0.02518111   -0.05975362   -0.00205566
     atom   58 type  1   force =    -0.03254079   -0.10385055   -0.01442078
     atom   59 type  1   force =    -0.06860953   -0.00075319   -0.04388743
     atom   60 type  1   force =    -0.00341526    0.05962524   -0.01553099
     atom   61 type  1   force =    -0.03027326    0.02968946   -0.00244452
     atom   62 type  1   force =     0.05360008    0.03521071    0.00273648
     atom   63 type  1   force =     0.03627294    0.05235550   -0.05209855
     atom   64 type  1   force =     0.02536627    0.05570933   -0.06844626
     atom   65 type  1   force =     0.02877204    0.00126837   -0.00112668
     atom   66 type  1   force =     0.00040491   -0.00019454    0.01900305
     atom   67 type  1   force =     0.00250037    0.00240311   -0.02406217
     atom   68 type  1   force =    -0.00202039   -0.00011034    0.02292276
     atom   69 type  1   force =     0.00255171    0.00278294   -0.02256229
     atom   70 type  1   force =    -0.02577248    0.00753668   -0.00113143
     atom   71 type  1   force =     0.00648445   -0.02514306   -0.00665085
     atom   72 type  1   force =     0.00142480   -0.00267251   -0.02596793
     atom   73 type  1   force =    -0.00087450   -0.00444833    0.01739502
     atom   74 type  1   force =    -0.00040146   -0.00304872   -0.02139215
     atom   75 type  1   force =    -0.00254780    0.00202720    0.02371970
     atom   76 type  1   force =    -0.01216834    0.02274873   -0.00276105
     atom   77 type  1   force =     0.00336504    0.02593269   -0.03157674
     atom   78 type  1   force =     0.00169626    0.00341116   -0.03511543
     atom   79 type  1   force =    -0.00188104   -0.00002565    0.00807193
     atom   80 type  1   force =    -0.00077798    0.03419215   -0.02934634
     atom   81 type  1   force =    -0.00018364   -0.00280817    0.02510144
     atom   82 type  1   force =     0.01071200   -0.01796091   -0.00716084
     atom   83 type  1   force =    -0.00570485    0.00021021   -0.06348149
     atom   84 type  1   force =     0.00139063    0.00267382   -0.00169209
     atom   85 type  1   force =    -0.00628515   -0.00140694   -0.00040999
     atom   86 type  1   force =    -0.03475681   -0.00059377   -0.03815582
     atom   87 type  1   force =     0.00420459    0.00117453    0.02333392
     atom   88 type  1   force =     0.01566790    0.01056090   -0.00557828
     atom   89 type  2   force =    -0.01050487    0.00959469   -0.00126577
     atom   90 type  2   force =    -0.02320290   -0.00690613    0.00001045
     atom   91 type  2   force =    -0.00939992   -0.02222982   -0.00393786
     atom   92 type  2   force =     0.02194392    0.00105434   -0.00398734
     atom   93 type  2   force =     0.00143217    0.01472140    0.00011277
     atom   94 type  2   force =    -0.02062066    0.01149733    0.00113094
     atom   95 type  2   force =    -0.01610982   -0.00872765    0.00421496
     atom   96 type  2   force =     0.02022712   -0.01277709    0.00285216
     atom   97 type  4   force =    -0.00021316    0.00044064   -0.00310355
     atom   98 type  4   force =     0.00146634    0.00012440    0.00337105
     atom   99 type  3   force =    -0.02495362   -0.02020444    0.00206119
     atom  100 type  3   force =    -0.02509981    0.01180409   -0.00065390
     atom  101 type  3   force =    -0.01710245    0.03406381    0.00532796
     atom  102 type  3   force =     0.00874521    0.02532715   -0.00197359
     atom  103 type  3   force =     0.03744480    0.01435079    0.01168215
     atom  104 type  3   force =     0.04252258   -0.00668184    0.02309965
     atom  105 type  3   force =     0.01869240   -0.02542903    0.00255367
     atom  106 type  3   force =    -0.00697931   -0.06377590    0.05121296
     atom  107 type  3   force =     0.01318326    0.01824849    0.08470281
     atom  108 type  3   force =     0.00033155   -0.00044474    0.00669636
     atom  109 type  3   force =    -0.00093983   -0.00129436   -0.00267343
     atom  110 type  3   force =     0.00463582    0.00552569    0.00827626
     atom  111 type  3   force =    -0.00021923    0.00102118    0.00427484
     atom  112 type  3   force =     0.00449581   -0.00329070    0.01635059
     atom  113 type  3   force =     0.00548046   -0.00315755    0.00782343
     atom  114 type  3   force =     0.00490998   -0.00264212   -0.00490095
     atom  115 type  3   force =    -0.00020985   -0.00014012    0.00443272
     atom  116 type  3   force =    -0.01382172    0.01385063    0.03380058
     atom  117 type  3   force =    -0.00604413    0.00355522    0.00676247
     atom  118 type  3   force =    -0.00322860    0.00185228   -0.00420690
     atom  119 type  3   force =     0.00021338    0.00017411    0.00349793
     atom  120 type  3   force =    -0.00223778   -0.00486085    0.00593881
     atom  121 type  3   force =    -0.00407037   -0.00557289    0.00702786
     atom  122 type  3   force =    -0.00261342   -0.00503598   -0.00478658
     atom  123 type  3   force =     0.04252581   -0.01154878    0.00386230
     atom  124 type  3   force =     0.01021237    0.04193506   -0.00099881
     atom  125 type  3   force =     0.02181256   -0.03700825    0.00169407
     atom  126 type  3   force =    -0.01262505   -0.04260702   -0.00096530
     atom  127 type  3   force =    -0.03179541    0.00458491    0.00076594
     atom  128 type  3   force =    -0.00793744    0.02759169   -0.00484215
     atom  129 type  3   force =     0.01491669    0.03557648   -0.00014981
     atom  130 type  3   force =     0.02759553    0.01411985   -0.00418920
     atom  131 type  3   force =     0.05335458   -0.02875345   -0.03124016
     atom  132 type  3   force =     0.01516916   -0.02811934   -0.00351837
     atom  133 type  3   force =    -0.01350304   -0.04282079   -0.03267053
     atom  134 type  3   force =    -0.02684598   -0.01883106   -0.00527565
     atom  135 type  3   force =    -0.00018111   -0.00038835   -0.00316657
     atom  136 type  3   force =     0.00312113   -0.00049870   -0.00295107
     atom  137 type  3   force =     0.00693361    0.00038928   -0.00760928
     atom  138 type  3   force =     0.00619164   -0.00063079    0.00645992
     atom  139 type  3   force =     0.00134741   -0.00413971   -0.01084381
     atom  140 type  3   force =     0.00069107    0.00091002   -0.00396369
     atom  141 type  3   force =     0.00106418   -0.00492756    0.00469995
     atom  142 type  3   force =     0.00168414   -0.00682765   -0.00846933
     atom  143 type  3   force =    -0.00368718    0.02448792   -0.05620678
     atom  144 type  3   force =    -0.00006144    0.00050370   -0.00444828
     atom  145 type  3   force =    -0.00019308    0.00134580    0.00309479
     atom  146 type  3   force =    -0.00068902    0.00749576   -0.00809194
     atom  147 type  3   force =    -0.02143683   -0.00130696   -0.08354553
     atom  148 type  3   force =     0.00075479   -0.00082599   -0.00779486
     atom  149 type  3   force =     0.00212460    0.00059046    0.00155578
     atom  150 type  3   force =    -0.00670130   -0.00084271   -0.00786207
     atom  151 type  3   force =     0.01692257   -0.01970123    0.00025016
     atom  152 type  3   force =     0.01993690    0.01812233    0.00105448
     atom  153 type  3   force =    -0.01357866   -0.02298426   -0.00135800
     atom  154 type  3   force =    -0.02011275   -0.01664610   -0.00181011
     atom  155 type  5   force =    -0.04480107    0.00296644   -0.00362430
     atom  156 type  5   force =    -0.00171168   -0.04378345    0.00176483
     atom  157 type  5   force =    -0.01292529    0.04222011   -0.00004810
     atom  158 type  5   force =     0.00315184    0.04630105    0.00096020
     atom  159 type  5   force =    -0.01627779    0.01178569   -0.00193707
     atom  160 type  5   force =    -0.01267615   -0.01555362   -0.00151333
     atom  161 type  5   force =     0.01235817    0.01540366    0.00036099
     atom  162 type  5   force =     0.01251893    0.01555690   -0.00006434

     Total force =     0.616903     Total SCF correction =     0.000284

     number of scf cycles    =   2
     number of bfgs steps    =   1

     energy   old            =   -3104.5913272281 Ry
     energy   new            =   -3104.7604798995 Ry

     CASE: energy  _new < energy  _old

     new trust radius        =       0.1109602276 bohr
     new conv_thr            =       0.0000000100 Ry


ATOMIC_POSITIONS (angstrom)
C       14.547336298  10.583540991  16.157905489
C       15.911506625  10.764949604  16.223877361
C       16.130581356  12.191203385  16.176940378
C       17.420133065  12.814930198  16.232419612
C       17.611301203  14.208525649  16.215532015
C       18.914705832  14.826487653  16.285180390
C       18.728836271  16.181958298  16.220034808
C       17.304348144  16.408607815  16.130662983
C       16.727407657  17.691192173  16.079035192
C       15.320651107  17.902131834  16.020185483
C       13.127331439  17.585287845  15.891313499
C       11.652053059  15.573289290  15.836995058
C       11.865080197  16.975184360  15.819500521
C       11.952059936  13.379722152  15.850092462
C       10.550335883  13.586105581  15.830471297
C       10.364160314  14.971813606  15.864627837
C       13.940094977  11.880457970  16.058000431
C       12.561649070  12.092970185  15.929048037
C       14.696662627  19.190494675  16.048117403
C       13.335540686  18.995771547  15.906504462
C       17.648125576  18.872027864  16.129211595
C       18.169476122  19.439546335  14.983807296
C       18.057475120  19.448956264  17.327474539
C       19.053286930  20.505636789  14.937255229
C       18.938367899  20.535873273  17.344771016
C       19.433378669  21.076183658  16.144148738
C       18.640902314  11.947756185  16.315655766
C       19.179516848  11.568384881  17.555657531
C       19.306164120  11.523262266  15.157207993
C       20.338718187  10.786556363  17.629675208
C       20.464620530  10.745952034  15.215185492
C       20.980697259  10.359825123  16.457635079
C       10.651390990  17.857272654  15.735363723
C        9.988667781  18.295061002  16.889908469
C       10.133497552  18.282351750  14.511577180
C        8.864506056  19.127377804  16.804217935
C        9.024317847  19.106916190  14.394736125
C        8.386947711  19.548040545  15.554514769
C       11.668718313  10.886591053  15.885505112
C       11.144809902  10.329468439  17.066227970
C       11.352084143  10.258039767  14.668379233
C       10.332502552   9.188457646  17.027901717
C       10.542596203   9.122308286  14.619312300
C       10.016524537   8.587611854  15.801370700
C       12.088607312  12.278365824  12.330478182
C       13.143360643  11.391313295  12.296596497
C       14.341910624  12.190978726  12.353086627
C       15.669024066  11.660543725  12.352285533
C       16.829041003  12.459948233  12.402671719
C       18.162259850  11.914216009  12.377810536
C       19.037381974  12.969036136  12.416615950
C       18.245276565  14.171230269  12.478689942
C       18.799114529  15.461283451  12.555971923
C       18.016260077  16.652293602  12.605056244
C       16.285000978  18.042081133  12.617783106
C       13.803797503  17.791278667  12.553996267
C       14.981999487  18.573454697  12.626711930
C       12.401454539  16.086571235  12.412260666
C       11.622527208  17.280451568  12.367769136
C       12.489631347  18.349008547  12.511475756
C       12.634431060  13.603565403  12.383766960
C       11.855822913  14.772996323  12.379367354
C       18.564178166  17.967882311  12.605045006
C       17.474018572  18.830416707  12.568855630
C       20.294490224  15.575342902  12.579224924
C       21.031816931  15.678100856  11.384990026
C       21.006659382  15.546146265  13.792505344
C       22.430726561  15.759148115  11.403393026
C       22.402333726  15.627425652  13.819086802
C       23.125014693  15.752471178  12.623683974
C       15.856539880  10.174199990  12.279165848
C       15.951462338   9.396910847  13.443490336
C       15.987726627   9.520632022  11.041203231
C       16.154526448   8.015430762  13.388764097
C       16.194410986   8.136415299  10.973947624
C       16.260625998   7.370395196  12.149218608
C       14.819799026  20.065866696  12.667665650
C       14.704641155  20.763644156  13.861203072
C       14.779729659  20.830796045  11.498613563
C       14.555806297  22.136970291  13.961875566
C       14.635891357  22.224329258  11.552477234
C       14.539466900  22.886973674  12.787997720
C       10.365952745  14.620479296  12.298451577
C        9.579728647  14.522438479  13.428153065
C        9.687725261  14.547545341  11.086128342
C        8.205338539  14.344169629  13.449276740
C        8.297842495  14.384097722  11.042852457
C        7.543551380  14.295191856  12.229282273
N       14.940321835  12.848780730  16.090311036
N       16.646911136  15.194238638  16.127552404
N       14.358324975  16.937706770  15.970687813
N       12.614382411  14.587804189  15.883719023
N       14.020662111  13.518829745  12.402333389
N       16.903760621  13.835841026  12.453886531
N       16.643857766  16.703860801  12.587911148
N       13.731568975  16.414035372  12.489052392
Zn      14.636005689  14.894059070  16.028514575
Zn      15.334185324  15.121124288  12.471848762
H       19.496528263  16.945011497  16.218248748
H       19.854298711  14.297545212  16.364783311
H       16.659062185   9.971863253  16.261453726
H       14.032941859   9.628954093  16.161920072
H        9.747604618  12.859365731  15.637449152
H        9.391783367  15.478396375  15.708107819
H       12.579789498  19.771456884  15.814221985
H       15.206996823  20.159514475  16.052716642
H       17.879783347  18.989394331  14.074768139
H       17.670339820  19.040827597  18.259395123
H       19.432374070  20.905867140  13.988765967
H       19.239113806  20.976560719  18.296481855
H       18.678707681  11.889818082  18.472113117
H       18.907954209  11.813318738  14.193579925
H       20.741769437  10.496718966  18.601542611
H       20.962932219  10.425356969  14.296382763
H       10.361350026  17.981053045  17.867210020
H       10.632987292  17.960365831  13.630908576
H        8.362366551  19.461444942  17.713641905
H        8.660448392  19.417899105  13.412805382
H       11.379132867  10.798783095  18.025861770
H       11.749673047  10.674699213  13.752783020
H        9.932604649   8.770230206  17.953302362
H       10.309505547   8.656544802  13.659401439
H        8.287066108   7.698448602  15.677655007
H       21.911669989   8.651153518  16.558911346
H       19.826832768  22.983053146  16.143493613
H        7.528485222  21.294892524  15.499404649
H       20.119913207  12.914079633  12.434403018
H       18.410084731  10.858543607  12.382770490
H       13.061891043  10.305474272  12.254555000
H       11.035294165  12.014071241  12.342655869
H       10.534286258  17.360679615  12.309909958
H       12.207360495  19.397337358  12.594260268
H       17.525934059  19.925322450  12.708640661
H       19.607183044  18.269481471  12.735534632
H       20.497409211  15.697887954  10.430482419
H       20.450523147  15.463215103  14.723303377
H       22.985661299  15.843108857  10.467781731
[...]
     atom   51 type  1   force =     0.00228771    0.00012362   -0.00008232
     atom   52 type  1   force =     0.00016919    0.00048800    0.00068658
     atom   53 type  1   force =     0.00030839   -0.00111300    0.00075806
     atom   54 type  1   force =    -0.00053568    0.00003339   -0.00006657
     atom   55 type  1   force =    -0.00044558   -0.00043983   -0.00133226
     atom   56 type  1   force =    -0.00165031    0.00003463    0.00265950
     atom   57 type  1   force =    -0.00134751   -0.00084805    0.00024611
     atom   58 type  1   force =     0.00029389    0.00034303   -0.00078399
     atom   59 type  1   force =     0.00117261    0.00007120   -0.00016686
     atom   60 type  1   force =     0.00018410    0.00046387   -0.00134546
     atom   61 type  1   force =     0.00131585   -0.00107936    0.00050742
     atom   62 type  1   force =     0.00067939    0.00018580    0.00105482
     atom   63 type  1   force =     0.00040696    0.00054614   -0.00169474
     atom   64 type  1   force =     0.00069414   -0.00343613   -0.00007590
     atom   65 type  1   force =     0.00050701    0.00112400    0.00074738
     atom   66 type  1   force =    -0.00098060    0.00141289   -0.00047585
     atom   67 type  1   force =    -0.00172242    0.00096792   -0.00081062
     atom   68 type  1   force =     0.00069168   -0.00015259   -0.00064979
     atom   69 type  1   force =     0.00032102   -0.00016311    0.00155674
     atom   70 type  1   force =     0.00200450   -0.00099837   -0.00157954
     atom   71 type  1   force =     0.00050777   -0.00133259   -0.00035844
     atom   72 type  1   force =    -0.00178599    0.00269408    0.00079253
     atom   73 type  1   force =    -0.00138600   -0.00055071    0.00074506
     atom   74 type  1   force =     0.00005808   -0.00178795   -0.00140595
     atom   75 type  1   force =    -0.00051251   -0.00069150    0.00152858
     atom   76 type  1   force =     0.00080556    0.00069786   -0.00164524
     atom   77 type  1   force =    -0.00051887    0.00033834   -0.00284300
     atom   78 type  1   force =    -0.00056884   -0.00037769    0.00294209
     atom   79 type  1   force =    -0.00037605    0.00003876    0.00252352
     atom   80 type  1   force =     0.00125361    0.00138281   -0.00361434
     atom   81 type  1   force =     0.00015570   -0.00121361   -0.00210244
     atom   82 type  1   force =     0.00142903   -0.00233759    0.00300906
     atom   83 type  1   force =    -0.00080228   -0.00127675   -0.00184289
     atom   84 type  1   force =    -0.00025031    0.00023390    0.00086329
     atom   85 type  1   force =     0.00326619   -0.00076644    0.00130040
     atom   86 type  1   force =    -0.00051798    0.00189090   -0.00345222
     atom   87 type  1   force =    -0.00165126    0.00197952   -0.00378875
     atom   88 type  1   force =     0.00030529    0.00307380    0.00494118
     atom   89 type  2   force =     0.00086307   -0.00120518    0.00097626
     atom   90 type  2   force =     0.00003496   -0.00064189    0.00088478
     atom   91 type  2   force =     0.00089835    0.00017515   -0.00046007
     atom   92 type  2   force =     0.00031696   -0.00076362   -0.00216577
     atom   93 type  2   force =     0.00052402   -0.00086841   -0.00152203
     atom   94 type  2   force =     0.00135432   -0.00073390   -0.00153308
     atom   95 type  2   force =     0.00004335    0.00036508    0.00081503
     atom   96 type  2   force =    -0.00030921   -0.00065643   -0.00140678
     atom   97 type  4   force =     0.00020770   -0.00077037    0.00416338
     atom   98 type  4   force =     0.00290945   -0.00136250   -0.00384472
     atom   99 type  3   force =    -0.00000337    0.00286279   -0.00006970
     atom  100 type  3   force =    -0.00064721   -0.00086069    0.00013897
     atom  101 type  3   force =    -0.00086346    0.00163015   -0.00061949
     atom  102 type  3   force =    -0.00057954    0.00043017    0.00051049
     atom  103 type  3   force =     0.00003372    0.00057400   -0.00184416
     atom  104 type  3   force =    -0.00223941    0.00058587   -0.00108728
     atom  105 type  3   force =     0.00007510   -0.00033996   -0.00064650
     atom  106 type  3   force =    -0.00199416   -0.00237131   -0.00229296
     atom  107 type  3   force =    -0.00051144    0.00142587    0.00106972
     atom  108 type  3   force =    -0.00040743    0.00251310   -0.00079620
     atom  109 type  3   force =     0.00199247    0.00010461   -0.00165525
     atom  110 type  3   force =     0.00054404   -0.00156270    0.00156728
     atom  111 type  3   force =     0.00120367   -0.00167791   -0.00048712
     atom  112 type  3   force =    -0.00224212    0.00057202    0.00069882
     atom  113 type  3   force =    -0.00030594   -0.00039625   -0.00107314
     atom  114 type  3   force =    -0.00294837    0.00108996    0.00124059
     atom  115 type  3   force =     0.00024382    0.00189988    0.00018437
     atom  116 type  3   force =     0.00124534    0.00077955    0.00019490
     atom  117 type  3   force =    -0.00119947    0.00068900    0.00137163
     atom  118 type  3   force =     0.00084831   -0.00072494    0.00151966
     atom  119 type  3   force =    -0.00089126   -0.00104028    0.00082136
     atom  120 type  3   force =     0.00095685    0.00128770   -0.00000644
     atom  121 type  3   force =    -0.00017699    0.00089013   -0.00143785
     atom  122 type  3   force =     0.00075464    0.00281287    0.00193681
     atom  123 type  3   force =     0.00252204   -0.00087637    0.00754857
     atom  124 type  3   force =     0.00019252    0.00183204    0.00488450
     atom  125 type  3   force =     0.00055561    0.00155642   -0.00039542
     atom  126 type  3   force =    -0.00128951    0.00062825    0.00222226
     atom  127 type  3   force =    -0.00072982    0.00091920   -0.00004923
     atom  128 type  3   force =    -0.00046786    0.00157485    0.00057685
     atom  129 type  3   force =     0.00173129   -0.00061688    0.00001207
     atom  130 type  3   force =    -0.00301016    0.00119458    0.00050397
     atom  131 type  3   force =     0.00225517   -0.00052410    0.00167962
     atom  132 type  3   force =    -0.00004640    0.00118652    0.00042005
     atom  133 type  3   force =     0.00021155    0.00038510    0.00173164
     atom  134 type  3   force =     0.00121262    0.00086883    0.00153282
     atom  135 type  3   force =     0.00129959    0.00099561   -0.00114707
     atom  136 type  3   force =    -0.00111547    0.00062616    0.00034681
     atom  137 type  3   force =    -0.00044642    0.00082618   -0.00001676
     atom  138 type  3   force =    -0.00280026    0.00080617   -0.00115580
     atom  139 type  3   force =    -0.00093187    0.00129359   -0.00058348
     atom  140 type  3   force =    -0.00084867   -0.00140419   -0.00046671
     atom  141 type  3   force =     0.00011764    0.00253122   -0.00187076
     atom  142 type  3   force =     0.00054090   -0.00042105   -0.00032982
     atom  143 type  3   force =     0.00075798    0.00006666   -0.00093641
     atom  144 type  3   force =     0.00100074    0.00041181   -0.00192802
     atom  145 type  3   force =    -0.00124967    0.00050627    0.00167560
     atom  146 type  3   force =    -0.00059460    0.00043016   -0.00109680
     atom  147 type  3   force =    -0.00092878   -0.00050666   -0.00116191
     atom  148 type  3   force =    -0.00110512    0.00043348   -0.00123428
     atom  149 type  3   force =    -0.00123438   -0.00192156    0.00184182
     atom  150 type  3   force =     0.00099097   -0.00157680    0.00050445
     atom  151 type  3   force =    -0.00305126    0.00068332    0.00187434
     atom  152 type  3   force =    -0.00004238   -0.00066864   -0.00139796
     atom  153 type  3   force =     0.00053368   -0.00068213   -0.00426012
     atom  154 type  3   force =     0.00086065    0.00117238   -0.00050708
     atom  155 type  5   force =    -0.00191763   -0.00192224   -0.00637251
     atom  156 type  5   force =     0.00124596   -0.00006437   -0.00270219
     atom  157 type  5   force =     0.00080037   -0.00194081    0.00081245
     atom  158 type  5   force =    -0.00177711   -0.00075973   -0.00185420
     atom  159 type  5   force =     0.00138096   -0.00299139   -0.00215261
     atom  160 type  5   force =     0.00091297   -0.00163999    0.00051642
     atom  161 type  5   force =     0.00133655   -0.00005257    0.00337748
     atom  162 type  5   force =    -0.00199825    0.00032429   -0.00005645

     Total force =     0.031788     Total SCF correction =     0.000178

     number of scf cycles    =  50
     number of bfgs steps    =  48

     energy   old            =   -3105.4828076491 Ry
     energy   new            =   -3105.4839194882 Ry

     CASE: energy  _new < energy  _old

     new trust radius        =       0.0469035053 bohr
     new conv_thr            =       0.0000000075 Ry


ATOMIC_POSITIONS (angstrom)
C       14.552712154  10.561739696  16.552986263
C       15.902245117  10.761905088  16.602762338
C       16.118410840  12.189806564  16.568390808
C       17.382539763  12.807366543  16.614908753
C       17.595152146  14.194975200  16.640740874
C       18.898088794  14.813490906  16.709962077
C       18.699652921  16.162785111  16.733556363
C       17.270973200  16.379345687  16.684770881
C       16.654785161  17.642158394  16.730690823
C       15.265016457  17.867648959  16.739738212
C       13.077839761  17.545336367  16.655340133
C       11.597042577  15.536175943  16.572615027
C       11.813901338  16.926861082  16.576652960
C       11.926545629  13.347832438  16.525109876
C       10.497943654  13.560845597  16.564360334
C       10.293995270  14.911478088  16.593211793
C       13.934300595  11.865961186  16.498216841
C       12.545246704  12.083948020  16.472115947
C       14.640969672  19.169146482  16.832144641
C       13.290841779  18.970204149  16.770026279
C       17.552031174  18.838787075  16.750296142
C       17.987357011  19.400958898  15.543325289
C       17.978246189  19.427970388  17.949945501
C       18.807327699  20.529515895  15.529664566
C       18.799333549  20.555792346  17.950530038
C       19.214218284  21.112556082  16.734252203
C       18.594063957  11.929843957  16.682812679
C       19.156922006  11.590170470  17.922541450
C       19.203685594  11.436667217  15.521122974
C       20.268893282  10.752205593  18.007208010
C       20.319271906  10.601846292  15.592976600
C       20.842652413  10.239538270  16.837245917
C       10.623495272  17.826582094  16.434173176
C        9.906912394  18.303180371  17.541532260
C       10.221103530  18.242275009  15.155646314
C        8.838781809  19.185755984  17.380890255
C        9.152050164  19.120802910  14.981467710
C        8.466380485  19.608596629  16.099788064
C       11.658203306  10.880373136  16.374373714
C       11.107436938  10.286860893  17.519198968
C       11.343083137  10.326089625  15.124499415
C       10.235321679   9.202430606  17.425187192
C       10.471474907   9.241925500  15.017018343
C        9.895920465   8.693559347  16.166672766
C       12.168254123  12.262543147  11.726685224
C       13.227500998  11.403776496  11.778479538
C       14.423169101  12.207964671  11.871338504
C       15.730102661  11.689154968  11.924658440
C       16.900150974  12.465741289  11.973664795
C       18.238053570  11.918600673  11.958383105
C       19.099813228  12.975937298  11.997831975
C       18.293921584  14.175476317  12.029912775
C       18.818552152  15.480397869  12.033944274
C       18.047159501  16.656461558  11.958679945
C       16.334522038  18.055144170  11.879709484
C       13.851683313  17.803749235  11.792965278
C       15.026494349  18.576424319  11.857273303
C       12.455997564  16.087861094  11.718078689
C       11.657838814  17.289289736  11.615666348
C       12.519543918  18.347565193  11.674067271
C       12.707467270  13.602772823  11.782986844
C       11.937672917  14.779393587  11.720537891
C       18.595188293  17.991925467  11.880454799
C       17.537872659  18.858282184  11.830641737
C       20.308405379  15.616647364  12.128739317
C       21.104603112  15.717975277  10.977483877
C       20.945153132  15.641048709  13.378462041
C       22.488348769  15.875231188  11.063823345
C       22.328381308  15.797923705  13.477635157
C       23.103195755  15.929311007  12.319703603
C       15.888161148  10.199768237  11.892088186
C       15.917252032   9.447734041  13.074522964
C       15.994241604   9.520894107  10.668320013
C       16.025158813   8.055811058  13.040000949
C       16.101303695   8.131185300  10.621557997
C       16.109606561   7.391774178  11.810380836
C       14.887981594  20.065185766  11.958869675
C       14.866003505  20.671405081  13.224035135
C       14.802340276  20.893085254  10.831037802
C       14.776086610  22.056513168  13.358873912
C       14.712716577  22.280092583  10.950857417
C       14.703342193  22.867823887  12.222040279
C       10.448396992  14.639993383  11.676210090
C        9.712123092  14.629158408  12.868569433
C        9.749458727  14.547493366  10.464932418
C        8.320911948  14.534600934  12.850760958
C        8.358287637  14.453070419  10.431014082
C        7.639448571  14.451914320  11.633400900
N       14.906020066  12.841208503  16.509266150
N       16.621300143  15.167511639  16.622583532
N       14.292486790  16.896334915  16.649678662
N       12.575227328  14.564665932  16.544385809
N       14.080678888  13.542344002  11.875305170
N       16.959195076  13.840172757  12.016535997
N       16.669982036  16.721120130  11.944372390
N       13.787223675  16.427682057  11.814466262
Zn      14.597595595  14.871162874  16.537942147
Zn      15.365044161  15.137333994  11.958459557
H       19.454685224  16.940892995  16.787471724
H       19.842242371  14.277728016  16.737599132
H       16.687101089  10.013650212  16.672050521
H       14.014760273   9.617842292  16.554426826
H        9.752711370  12.768497826  16.589883574
H        9.349878125  15.450036784  16.647621173
H       12.502193611  19.716994281  16.814663488
H       15.173817050  20.107641734  16.963213790
H       17.685941232  18.948214758  14.598891905
H       17.666419986  18.985317537  18.897669958
H       19.113902619  20.966725901  14.574853293
H       19.118913290  21.027104194  18.881011615
H       18.711434594  11.990225576  18.836721271
H       18.812480304  11.716492376  14.541890098
H       20.696041672  10.483141496  18.971705526
H       20.789680603  10.230207446  14.677134912
H       10.187302603  17.972151567  18.544890916
H       10.756791121  17.869350121  14.280760984
H        8.289917672  19.565311179  18.241724012
H        8.861829157  19.439758609  13.975733310
H       11.361418751  10.691111013  18.502383661
H       11.776955350  10.758532687  14.220319211
H        9.804067002   8.745932130  18.315755750
H       10.233096797   8.818928984  14.035063180
H        8.804831723   7.468982785  15.168746851
H       22.171311099   9.092466372  16.064711244
H       20.235578508  22.485521237  15.869336677
H        7.299112187  20.703664807  15.047778512
H       20.185963724  12.955024804  12.000263152
H       18.479921039  10.860043713  11.906656920
H       13.205642813  10.318728986  11.752471433
H       11.115674508  12.009340774  11.640892430
H       10.579200589  17.314543600  11.492054763
H       12.282165670  19.405929161  11.624353223
H       17.560748660  19.940669897  11.733859488
H       19.656979700  18.224313042  11.844644136
H       20.625604592  15.669793856   9.997868566
H       20.347544996  15.537502087  14.286133759
H       23.105882174  15.950055571  10.169304900
H       22.814988544  15.809461157  14.457120595
H       15.847203284   9.953098205  14.038103214
H       15.992217368  10.096084425   9.740056961
H       16.034512379   7.483368792  13.971910531
H       16.172784727   7.605458063   9.669975656
H       14.917853128  20.048539186  14.116788424
H       14.805221448  20.439585813   9.839260029
H       14.778611469  22.508742970  14.355871412
H       14.655396467  22.919797979  10.070249188
H       10.231966099  14.706264491  13.822590158
H       10.310361482  14.554163112   9.530181153
H        7.763691793  14.561001254  13.792966900
H        7.815854319  14.403581821   9.486527027
H        5.923157694  14.355079958  12.469697175
H       16.199156498   5.655565653  12.617803157
H       24.735299196  16.139329228  13.303716631
H       14.582831169  24.488342501  13.236601970
O        8.992242302   7.658936336  16.109819060
O       21.908910205   9.382378851  16.960292588
O       20.000829116  22.235968053  16.782269930
O        7.435474096  20.507222217  15.995133498
O        6.270056770  14.396765125  11.561286367
O       16.195829669   6.027193981  11.714834770
O       24.462818142  16.107656470  12.366159981
O       14.635186286  24.235704235  12.296122699



     Writing output data file ZnTHPP_dimer.save/
     Message from routine punch:
     wavefunctions written to file
     NEW-OLD atomic charge density approx. for the potential

     Check: negative core charge=   -0.000001

     negative rho (up, down):  4.900E-02 0.000E+00

     Writing output data file ZnTHPP_dimer.save/
 
     init_run     :     32.12s CPU     34.55s WALL (       1 calls)
     electrons    :  16005.25s CPU  16858.59s WALL (      50 calls)
     update_pot   :    670.13s CPU    676.26s WALL (      50 calls)
     forces       :   1170.75s CPU   1232.10s WALL (      50 calls)

     Called by init_run:
     wfcinit      :      9.06s CPU      9.18s WALL (       1 calls)
     potinit      :      4.57s CPU      4.68s WALL (       1 calls)
     hinit0       :      9.29s CPU     10.74s WALL (       1 calls)

     Called by electrons:
     c_bands      :   9898.43s CPU  10015.39s WALL (     597 calls)
     sum_band     :   3873.63s CPU   4192.66s WALL (     597 calls)
     v_of_rho     :    684.00s CPU    722.27s WALL (     648 calls)
     newd         :   1342.71s CPU   1713.28s WALL (     648 calls)
     PAW_pot      :    114.32s CPU    114.69s WALL (     698 calls)
     mix_rho      :    154.61s CPU    163.46s WALL (     597 calls)

     Called by c_bands:
     init_us_2    :     72.81s CPU     73.11s WALL (    1245 calls)
     regterg      :   9763.01s CPU   9879.52s WALL (     597 calls)

     Called by sum_band:
     sum_band:bec :      1.00s CPU      1.02s WALL (     647 calls)
     addusdens    :   1775.74s CPU   2082.16s WALL (     597 calls)

     Called by *egterg:
     h_psi        :   7911.91s CPU   7946.53s WALL (    3029 calls)
     s_psi        :    384.66s CPU    385.00s WALL (    3029 calls)
     g_psi        :     17.59s CPU     17.68s WALL (    2431 calls)
     rdiaghg      :    206.93s CPU    211.09s WALL (    2979 calls)

     Called by h_psi:
     h_psi:pot    :   7878.22s CPU   7912.70s WALL (    3029 calls)
     h_psi:calbec :    421.32s CPU    423.55s WALL (    3029 calls)
     vloc_psi     :   7054.31s CPU   7085.61s WALL (    3029 calls)
     add_vuspsi   :    402.53s CPU    403.52s WALL (    3029 calls)

     General routines
     calbec       :    630.50s CPU    633.83s WALL (    3876 calls)
     fft          :    856.19s CPU    907.25s WALL (    7528 calls)
     ffts         :     32.66s CPU     32.92s WALL (    1245 calls)
     fftw         :   5554.19s CPU   5583.52s WALL (  598437 calls)
     interpolate  :     86.84s CPU     90.34s WALL (     648 calls)
     davcio       :      0.85s CPU      2.58s WALL (      50 calls)
 
     Parallel routines
     fft_scatt_xy :    990.29s CPU    995.19s WALL (  607210 calls)
     fft_scatt_yz :   2693.75s CPU   2751.13s WALL (  607210 calls)
 
     PWSCF        :      5h 0m CPU      5h17m WALL

 
   This run was terminated on:  23:17:37  28May2021            

=------------------------------------------------------------------------------=
   JOB DONE.
=------------------------------------------------------------------------------=
