
     Program PWSCF v.6.2 (svn rev. 14038) starts on 22Jun2021 at 18:58:39 

     This program is part of the open-source Quantum ESPRESSO suite
     for quantum simulation of materials; please cite
         "P. Giannozzi et al., J. Phys.:Condens. Matter 21 395502 (2009);
         "P. Giannozzi et al., J. Phys.:Condens. Matter 29 465901 (2017);
          URL http://www.quantum-espresso.org", 
     in publications or presentations arising from this work. More details at
     http://www.quantum-espresso.org/quote

     Parallel version (MPI), running on    12 processors

     MPI processes distributed on     1 nodes
     R & G space division:  proc/nbgrp/npool/nimage =      12
     Waiting for input...
     Reading input from standard input

     Current dimensions of program PWSCF are:
     Max number of different atomic species (ntypx) = 10
     Max number of k-points (npk) =  40000
     Max angular momentum in pseudopotentials (lmaxx) =  3
               file Ir.pbe-n-rrkjus_psl.0.2.3.UPF: wavefunction(s)  5D renormalized

     gamma-point specific algorithms are used

     Subspace diagonalization in iterative solution of the eigenvalue problem:
     a serial algorithm will be used

 
     Parallelization info
     --------------------
     sticks:   dense  smooth     PW     G-vecs:    dense   smooth      PW
     Min         353     140     34                17398     4383     546
     Max         356     144     36                17404     4390     556
     Sum        4257    1701    421               208801    52635    6619
 


     bravais-lattice index     =            0
     lattice parameter (alat)  =      13.3514  a.u.
     unit-cell volume          =    2380.0325 (a.u.)^3
     number of atoms/cell      =           25
     number of atomic types    =            4
     number of electrons       =        72.00
     number of Kohn-Sham states=          100
     kinetic-energy cutoff     =      30.0000  Ry
     charge density cutoff     =     300.0000  Ry
     convergence threshold     =      1.0E-04
     mixing beta               =       0.3000
     number of iterations used =            8  plain     mixing
     Exchange-correlation      = PBE ( 1  4  3  4 0 0)

     celldm(1)=  13.351425  celldm(2)=   0.000000  celldm(3)=   0.000000
     celldm(4)=   0.000000  celldm(5)=   0.000000  celldm(6)=   0.000000

     crystal axes: (cart. coord. in units of alat)
               a(1) = (   1.000000   0.000000   0.000000 )  
               a(2) = (   0.000000   1.000000   0.000000 )  
               a(3) = (   0.000000   0.000000   1.000000 )  

     reciprocal axes: (cart. coord. in units 2 pi/alat)
               b(1) = (  1.000000  0.000000  0.000000 )  
               b(2) = (  0.000000  1.000000  0.000000 )  
               b(3) = (  0.000000  0.000000  1.000000 )  


     PseudoPot. # 1 for C  read from file:
     /util/academic/espresso/6.2.1/pseudopotentials/upf_files/C.pbe-n-rrkjus_psl.0.1.UPF
     MD5 check sum: ab446d787031eba755f1d5ee46644bb0
     Pseudo is Ultrasoft + core correction, Zval =  4.0
     Generated using "atomic" code by A. Dal Corso v.5.0.2 svn rev. 9415
     Using radial grid of 1073 points,  4 beta functions with: 
                l(1) =   0
                l(2) =   0
                l(3) =   1
                l(4) =   1
     Q(r) pseudized with 0 coefficients 


     PseudoPot. # 2 for H  read from file:
     /util/academic/espresso/6.2.1/pseudopotentials/upf_files/H.pbe-rrkjus_psl.0.1.UPF
     MD5 check sum: bd57da0722753ddfd9833a65b40bb853
     Pseudo is Ultrasoft, Zval =  1.0
     Generated using "atomic" code by A. Dal Corso v.5.0.2 svn rev. 9415
     Using radial grid of  929 points,  2 beta functions with: 
                l(1) =   0
                l(2) =   0
     Q(r) pseudized with 0 coefficients 


     PseudoPot. # 3 for Ir read from file:
     /util/academic/espresso/6.2.1/pseudopotentials/upf_files/Ir.pbe-n-rrkjus_psl.0.2.3.UPF
     MD5 check sum: 0d5bc36db6a0bde07ee800c0d8fcbb77
     Pseudo is Ultrasoft + core correction, Zval =  9.0
     Generated using "atomic" code by A. Dal Corso v.5.0.2 svn rev. 9415
     Using radial grid of 1277 points,  6 beta functions with: 
                l(1) =   0
                l(2) =   0
                l(3) =   1
                l(4) =   1
                l(5) =   2
                l(6) =   2
     Q(r) pseudized with 0 coefficients 


     PseudoPot. # 4 for N  read from file:
     /util/academic/espresso/6.2.1/pseudopotentials/upf_files/N.pbe-n-rrkjus_psl.0.1.UPF
     MD5 check sum: ed8b6a90f28a53b7d71920e7015d2dd6
     Pseudo is Ultrasoft + core correction, Zval =  5.0
     Generated using "atomic" code by A. Dal Corso v.5.0.2 svn rev. 9415
     Using radial grid of 1085 points,  4 beta functions with: 
                l(1) =   0
                l(2) =   0
                l(3) =   1
                l(4) =   1
     Q(r) pseudized with 0 coefficients 


     atomic species   valence    mass     pseudopotential
        C              4.00    12.01000     C ( 1.00)
        H              1.00     1.00700     H ( 1.00)
        Ir             9.00   192.21700     Ir( 1.00)
        N              5.00    14.00600     N ( 1.00)

     No symmetry found



   Cartesian axes

     site n.     atom                  positions (alat units)
         1           Ir  tau(   1) = (  -0.0003156   0.0050098   0.0022596  )
         2           N   tau(   2) = (   0.1604190  -0.1870233  -0.1593954  )
         3           N   tau(   3) = (  -0.2363968   0.0049991  -0.1720260  )
         4           N   tau(   4) = (   0.1059830   0.2169680  -0.1712591  )
         5           C   tau(   5) = (  -0.0815278   0.2264153   0.1489868  )
         6           C   tau(   6) = (   0.2188362  -0.0549465   0.1785690  )
         7           C   tau(   7) = (   0.2839100  -0.2832038  -0.0480686  )
         8           C   tau(   8) = (   0.3167537  -0.2126426   0.1365222  )
         9           C   tau(   9) = (  -0.1546776  -0.1836526   0.1310173  )
        10           C   tau(  10) = (   0.0737604   0.3791478  -0.0990261  )
        11           C   tau(  11) = (  -0.0093536   0.3915715   0.0852781  )
        12           C   tau(  12) = (  -0.3587764  -0.1395440  -0.1276280  )
        13           C   tau(  13) = (  -0.3175943  -0.2341376   0.0408248  )
        14           H   tau(  14) = (   0.2457219   0.0188811   0.3175705  )
        15           H   tau(  15) = (   0.4170644  -0.2821167   0.2260501  )
        16           H   tau(  16) = (   0.3687270  -0.4006848  -0.1037315  )
        17           H   tau(  17) = (   0.0796416   0.5151344  -0.1793099  )
        18           H   tau(  18) = (  -0.0083376   0.5309083   0.1560186  )
        19           H   tau(  19) = (  -0.1728493   0.2200942   0.2805571  )
        20           H   tau(  20) = (  -0.3931138  -0.3719405   0.0642896  )
        21           H   tau(  21) = (  -0.1214198  -0.2459192   0.2630998  )
        22           H   tau(  22) = (  -0.4629404  -0.1670128  -0.2344125  )
        23           H   tau(  23) = (   0.1478984  -0.2041659  -0.2993580  )
        24           H   tau(  24) = (   0.1419774   0.1967098  -0.3131316  )
        25           H   tau(  25) = (  -0.2575523   0.0715730  -0.2907486  )

     number of k points=     1  gaussian smearing, width (Ry)=  0.0100
                       cart. coord. in units 2pi/alat
        k(    1) = (   0.0000000   0.0000000   0.0000000), wk =   2.0000000

     Dense  grid:   104401 G-vectors     FFT dimensions: (  75,  75,  75)

     Smooth grid:    26318 G-vectors     FFT dimensions: (  48,  48,  48)

     Estimated max dynamical RAM per process >      46.16 MB

     Estimated total dynamical RAM >     553.92 MB

     Check: negative/imaginary core charge=   -0.000002    0.000000

     Initial potential from superposition of free atoms

     starting charge   71.99934, renormalised to   72.00000
     Starting wfc are   69 randomized atomic wfcs +   31 random wfc

     total cpu time spent up to now is        2.5 secs

     Self-consistent Calculation

     iteration #  1     ecut=    30.00 Ry     beta= 0.30
     Davidson diagonalization with overlap
     ethr =  1.00E-02,  avg # of iterations =  5.0

     total cpu time spent up to now is        2.9 secs

     total energy              =    -243.65388606 Ry
     Harris-Foulkes estimate   =    -244.97189858 Ry
     estimated scf accuracy    <       3.44388533 Ry

     iteration #  2     ecut=    30.00 Ry     beta= 0.30
     Davidson diagonalization with overlap
     ethr =  4.78E-03,  avg # of iterations =  1.0

     total cpu time spent up to now is        3.1 secs

     total energy              =    -243.77008342 Ry
     Harris-Foulkes estimate   =    -244.08726347 Ry
     estimated scf accuracy    <       0.90752650 Ry

     iteration #  3     ecut=    30.00 Ry     beta= 0.30
     Davidson diagonalization with overlap
     ethr =  1.26E-03,  avg # of iterations =  4.0

     total cpu time spent up to now is        3.3 secs

     total energy              =    -243.80806122 Ry
     Harris-Foulkes estimate   =    -243.91707790 Ry
     estimated scf accuracy    <       0.34615952 Ry

     iteration #  4     ecut=    30.00 Ry     beta= 0.30
     Davidson diagonalization with overlap
     ethr =  4.81E-04,  avg # of iterations =  4.0

     negative rho (up, down):  1.776E-07 0.000E+00

     total cpu time spent up to now is        3.6 secs

     total energy              =    -243.83248881 Ry
     Harris-Foulkes estimate   =    -243.85066480 Ry
     estimated scf accuracy    <       0.05554332 Ry

     iteration #  5     ecut=    30.00 Ry     beta= 0.30
     Davidson diagonalization with overlap
     ethr =  7.71E-05,  avg # of iterations = 12.0

     negative rho (up, down):  6.074E-07 0.000E+00

     total cpu time spent up to now is        4.0 secs

     total energy              =    -243.84014622 Ry
     Harris-Foulkes estimate   =    -243.84144739 Ry
     estimated scf accuracy    <       0.00622598 Ry

     iteration #  6     ecut=    30.00 Ry     beta= 0.30
     Davidson diagonalization with overlap
     ethr =  8.65E-06,  avg # of iterations =  2.0

     negative rho (up, down):  2.629E-07 0.000E+00

     total cpu time spent up to now is        4.3 secs

     total energy              =    -243.84075731 Ry
     Harris-Foulkes estimate   =    -243.84085932 Ry
     estimated scf accuracy    <       0.00092295 Ry

     iteration #  7     ecut=    30.00 Ry     beta= 0.30
     Davidson diagonalization with overlap
     ethr =  1.28E-06,  avg # of iterations =  4.0

     negative rho (up, down):  4.049E-08 0.000E+00

     total cpu time spent up to now is        4.5 secs

     total energy              =    -243.84084504 Ry
     Harris-Foulkes estimate   =    -243.84084060 Ry
     estimated scf accuracy    <       0.00017320 Ry

     iteration #  8     ecut=    30.00 Ry     beta= 0.30
     Davidson diagonalization with overlap
     ethr =  2.41E-07,  avg # of iterations =  2.0

     total cpu time spent up to now is        4.7 secs

     End of self-consistent calculation

          k = 0.0000 0.0000 0.0000 (  3310 PWs)   bands (ev):

   -18.4048 -17.9295 -17.5779 -14.4478 -14.0926 -13.9707 -11.6342 -10.9152
   -10.6871  -9.1889  -8.7535  -8.2958  -8.1767  -8.0524  -7.6443  -6.4017
    -6.1090  -5.6652  -5.5678  -5.2693  -5.0304  -4.6650  -4.4238  -4.2075
    -4.0646  -3.6551  -3.5093  -2.4217  -2.3502  -2.0382  -1.7153  -1.5279
    -1.1154  -0.5085  -0.2638   0.2302   1.9773   2.4852   3.1086   3.1989
     4.7510   5.1114   5.3745   5.4767   5.6633   5.8024   6.0369   6.2542
     6.6984   6.8483   6.9814   7.5392   7.7460   7.9013   8.2332   8.4011
     8.6145   8.7348   9.1128   9.2205   9.4997   9.8898  10.0191  10.6186
    10.8171  11.0113  11.1311  11.2604  11.5842  11.7556  11.9137  12.3063
    12.3740  12.5554  12.7021  12.8966  12.9726  13.1590  13.4921  13.8665
    14.0583  14.1152  14.2413  14.4704  14.6354  14.7023  14.7782  14.8924
    15.1889  15.3895  15.6226  15.8116  15.9355  16.0531  16.2046  16.4407
    16.6620  16.8811  16.9517  17.0715

     the Fermi energy is     1.0218 ev

!    total energy              =    -243.84091208 Ry
     Harris-Foulkes estimate   =    -243.84087372 Ry
     estimated scf accuracy    <       0.00002264 Ry

     The total energy is the sum of the following terms:

     one-electron contribution =    -341.30564418 Ry
     hartree contribution      =     194.82332420 Ry
     xc contribution           =     -93.38154087 Ry
     ewald contribution        =      -3.97705123 Ry
     smearing contrib. (-TS)   =      -0.00000000 Ry

     convergence has been achieved in   8 iterations

     Writing output data file x0.save
 
     init_run     :      0.36s CPU      0.44s WALL (       1 calls)
     electrons    :      2.20s CPU      2.34s WALL (       1 calls)

     Called by init_run:
     wfcinit      :      0.03s CPU      0.04s WALL (       1 calls)
     potinit      :      0.07s CPU      0.09s WALL (       1 calls)

     Called by electrons:
     c_bands      :      1.14s CPU      1.17s WALL (       8 calls)
     sum_band     :      0.49s CPU      0.50s WALL (       8 calls)
     v_of_rho     :      0.25s CPU      0.26s WALL (       9 calls)
     newd         :      0.31s CPU      0.33s WALL (       9 calls)
     mix_rho      :      0.03s CPU      0.03s WALL (       8 calls)

     Called by c_bands:
     init_us_2    :      0.01s CPU      0.01s WALL (      17 calls)
     regterg      :      1.13s CPU      1.15s WALL (       8 calls)

     Called by sum_band:
     sum_band:bec :      0.00s CPU      0.00s WALL (       8 calls)
     addusdens    :      0.34s CPU      0.35s WALL (       8 calls)

     Called by *egterg:
     h_psi        :      0.48s CPU      0.49s WALL (      43 calls)
     s_psi        :      0.01s CPU      0.01s WALL (      43 calls)
     g_psi        :      0.00s CPU      0.00s WALL (      34 calls)
     rdiaghg      :      0.53s CPU      0.53s WALL (      42 calls)

     Called by h_psi:
     h_psi:pot    :      0.48s CPU      0.49s WALL (      43 calls)
     h_psi:calbec :      0.02s CPU      0.02s WALL (      43 calls)
     vloc_psi     :      0.44s CPU      0.45s WALL (      43 calls)
     add_vuspsi   :      0.01s CPU      0.01s WALL (      43 calls)

     General routines
     calbec       :      0.03s CPU      0.03s WALL (      51 calls)
     fft          :      0.26s CPU      0.26s WALL (     140 calls)
     ffts         :      0.01s CPU      0.01s WALL (      17 calls)
     fftw         :      0.47s CPU      0.48s WALL (    2470 calls)
     interpolate  :      0.04s CPU      0.04s WALL (      17 calls)
 
     Parallel routines
     fft_scatt_xy :      0.04s CPU      0.04s WALL (    2627 calls)
     fft_scatt_yz :      0.14s CPU      0.15s WALL (    2627 calls)
 
     PWSCF        :     4.17s CPU         5.50s WALL

 
   This run was terminated on:  18:58:45  22Jun2021            

=------------------------------------------------------------------------------=
   JOB DONE.
=------------------------------------------------------------------------------=
