----- GAMESS execution script 'rungms' -----
This job is running on host compute-0-12
under operating system Linux at Thu Jun 24 10:06:56 -03 2021
PBS has assigned the following compute nodes to this run:
compute-0-12
Available scratch disk space (Kbyte units) at beginning of the job is
Filesystem              1K-blocks     Used Available Use% Mounted on
/dev/mapper/system-root 462859452 37275672 425583780   9% /
GAMESS temporary binary files will be written to /var/tmp/pbs.36010.masternode2
GAMESS supplementary output files will be written to /tmp
Copying input file benzene.inp to your run's scratch directory...
cp benzene.inp /var/tmp/pbs.36010.masternode2/benzene.F05
unset echo
/home/molecula1/maplima/agf18/GAMESS/gamess/ddikick.x /home/molecula1/maplima/agf18/GAMESS/gamess/gamess.00.x benzene -ddi 1 1 compute-0-12 -scr /var/tmp/pbs.36010.masternode2

 Distributed Data Interface kickoff program.
 Initiating 1 compute processes on 1 nodes to run the following command:
 /home/molecula1/maplima/agf18/GAMESS/gamess/gamess.00.x benzene 

          ******************************************************
          *         GAMESS VERSION = 02 AUG 2018 (R2)         *
          *             FROM IOWA STATE UNIVERSITY             *
          * M.W.SCHMIDT, K.K.BALDRIDGE, J.A.BOATZ, S.T.ELBERT, *
          *   M.S.GORDON, J.H.JENSEN, S.KOSEKI, N.MATSUNAGA,   *
          *          K.A.NGUYEN, S.J.SU, T.L.WINDUS,           *
          *       TOGETHER WITH M.DUPUIS, J.A.MONTGOMERY       *
          *         J.COMPUT.CHEM.  14, 1347-1363(1993)        *
          **************** 64 BIT LINUX VERSION ****************

  SINCE 1993, STUDENTS AND POSTDOCS WORKING AT IOWA STATE UNIVERSITY
  AND ALSO IN THEIR VARIOUS JOBS AFTER LEAVING ISU HAVE MADE IMPORTANT
  CONTRIBUTIONS TO THE CODE:
     IVANA ADAMOVIC, CHRISTINE AIKENS, YURI ALEXEEV, POOJA ARORA,
     ANDREY ASADCHEV, ROB BELL, PRADIPTA BANDYOPADHYAY, JONATHAN BENTZ,
     BRETT BODE, KURT BRORSEN, CALEB CARLIN, GALINA CHABAN, WEI CHEN,
     CHEOL HO CHOI, PAUL DAY, ALBERT DEFUSCO, NUWAN DESILVA, TIM DUDLEY,
     DMITRI FEDOROV, ALEX FINDLATER, GRAHAM FLETCHER, MARK FREITAG,
     KURT GLAESEMANN, ANASTASIA GUININA,
     DAN KEMP, GRANT MERRILL, NORIYUKI MINEZAWA, JONATHAN MULLIN,
     TAKESHI NAGATA, SEAN NEDD, HEATHER NETZLOFF, BOSILJKA NJEGIC, RYAN OLSON,
     MIKE PAK, BUU PHAM,
     SPENCER PRUITT, LUKE ROSKOP, JIM SHOEMAKER, LYUDMILA SLIPCHENKO,
     TONY SMITH, SAROM SOK LEANG, JIE SONG, TETSUYA TAKETSUGU, SIMON WEBB,
     PENG XU, SOOHAENG YOO, FEDERICO ZAHARIEV

  ADDITIONAL CODE HAS BEEN PROVIDED BY COLLABORATORS IN OTHER GROUPS:
     IOWA STATE UNIVERSITY:
          JOE IVANIC, AARON WEST, LAIMUTIS BYTAUTAS, KLAUS RUEDENBERG
     UNIVERSITY OF TOKYO: KIMIHIKO HIRAO, TAKAHITO NAKAJIMA,
          TAKAO TSUNEDA, MUNEAKI KAMIYA, SUSUMU YANAGISAWA,
          KIYOSHI YAGI, MAHITO CHIBA, SEIKEN TOKURA, NAOAKI KAWAKAMI
     UNIVERSITY OF AARHUS: FRANK JENSEN
     UNIVERSITY OF IOWA: VISVALDAS KAIRYS, HUI LI
     NATIONAL INST. OF STANDARDS AND TECHNOLOGY: WALT STEVENS, DAVID GARMER
     UNIVERSITY OF PISA: BENEDETTA MENNUCCI, JACOPO TOMASI
     UNIVERSITY OF MEMPHIS: HENRY KURTZ, PRAKASHAN KORAMBATH
     UNIVERSITY OF ALBERTA: TOBY ZENG, MARIUSZ KLOBUKOWSKI
     UNIVERSITY OF NEW ENGLAND: MARK SPACKMAN
     MIE UNIVERSITY: HIROAKI UMEDA
     NAT. INST. OF ADVANCED INDUSTRIAL SCIENCE AND TECHNOLOGY: KAZUO KITAURA
     MICHIGAN STATE UNIVERSITY:
          KAROL KOWALSKI, MARTA WLOCH, JEFFREY GOUR, JESSE LUTZ,
          WEI LI, JUN SHEN, J. EMILIANO DEUSTUA, PIOTR PIECUCH
     UNIVERSITY OF MINNESOTA:
          YINAN SHU
     UNIVERSITY OF SILESIA: MONIKA MUSIAL, STANISLAW KUCHARSKI
     FACULTES UNIVERSITAIRES NOTRE-DAME DE LA PAIX:
          OLIVIER QUINET, BENOIT CHAMPAGNE
     UNIVERSITY OF CALIFORNIA - SANTA BARBARA: BERNARD KIRTMAN
     INSTITUTE FOR MOLECULAR SCIENCE:
          KAZUYA ISHIMURA, MICHIO KATOUDA, AND SHIGERU NAGASE
     UNIVERSITY OF NOTRE DAME: ANNA POMOGAEVA, DAN CHIPMAN
     KYUSHU UNIVERSITY:
          HARUYUKI NAKANO,
          FENG LONG GU, JACEK KORCHOWIEC, MARCIN MAKOWSKI, AND YURIKO AOKI,
          HIROTOSHI MORI AND EISAKU MIYOSHI
     PENNSYLVANIA STATE UNIVERSITY:
          TZVETELIN IORDANOV, CHET SWALINA, JONATHAN SKONE,
          SHARON HAMMES-SCHIFFER
     WASEDA UNIVERSITY:
          MASATO KOBAYASHI, TOMOKO AKAMA, TSUGUKI TOUMA,
          TAKESHI YOSHIKAWA, YASUHIRO IKABATA, JUNJI SEINO,
          YUYA NAKAJIMA, HIROMI NAKAI
     NANJING UNIVERSITY: SHUHUA LI
     UNIVERSITY OF NEBRASKA:
          PEIFENG SU, DEJUN SI, NANDUN THELLAMUREGE, YALI WANG, HUI LI
     UNIVERSITY OF ZURICH: ROBERTO PEVERATI, KIM BALDRIDGE
     N. COPERNICUS UNIVERSITY AND JACKSON STATE UNIVERSITY:
          MARIA BARYSZ
     UNIVERSITY OF COPENHAGEN: Jimmy Kromann, CASPER STEINMANN
     TOKYO INSTITUTE OF TECHNOLOGY: HIROYA NAKATA
     NAGOYA UNIVERSITY: YOSHIO NISHIMOTO, STEPHAN IRLE
     MOSCOW STATE UNIVERSITY: VLADIMIR MIRONOV

 EXECUTION OF GAMESS BEGUN Thu Jun 24 10:06:57 2021

            ECHO OF THE FIRST FEW INPUT CARDS -
 INPUT CARD> $CONTRL SCFTYP=RHF RUNTYP=OPTIMIZE MPLEVL=2 MAXIT=100 MULT=1 ISPHER=1          
 INPUT CARD>    COORD=UNIQUE UNITS=BOHR $END                                                
 INPUT CARD> $SYSTEM TIMLIM=10000000 MEMORY=30000000 $END                                   
 INPUT CARD> $BASIS GBASIS=ACCD $END                                                        
 INPUT CARD> $SCF DIRSCF=.TRUE. $END                                                        
 INPUT CARD> $statpt opttol=0.0005 nstep=50 $end                                            
 INPUT CARD> $DATA                                                                          
 INPUT CARD>...benzene...                                                                   
 INPUT CARD>Dnh 2                                                                           
 INPUT CARD>                                                                                
 INPUT CARD>C     6.0    -2.63995     0.00000    0.00000                                    
 INPUT CARD>C     6.0     1.31997    -2.28619    0.00000                                    
 INPUT CARD>H     1.0    -4.68841     0.00000    0.00000                                    
 INPUT CARD>H     1.0    -2.34421    -4.06027    0.00000                                    
 INPUT CARD> $END                                                                           
   30000000 WORDS OF MEMORY AVAILABLE

     BASIS OPTIONS
     -------------
     GBASIS=ACCD         IGAUSS=       0      POLAR=NONE    
     NDFUNC=       0     NFFUNC=       0     DIFFSP=       F
     NPFUNC=       0      DIFFS=       F     BASNAM=        


     RUN TITLE
     ---------
 ...benzene...                                                                   

 THE POINT GROUP OF THE MOLECULE IS DNH     
 THE ORDER OF THE PRINCIPAL AXIS IS     2

 ATOM      ATOMIC                      COORDINATES (BOHR)
           CHARGE         X                   Y                   Z
 C           6.0     2.6399500000       -0.0000000000        0.0000000000
 C           6.0    -2.6399500000        0.0000000000        0.0000000000
 C           6.0    -1.3199700000        2.2861900000        0.0000000000
 C           6.0     1.3199700000        2.2861900000        0.0000000000
 C           6.0    -1.3199700000       -2.2861900000        0.0000000000
 C           6.0     1.3199700000       -2.2861900000        0.0000000000
 H           1.0     4.6884100000       -0.0000000000        0.0000000000
 H           1.0    -4.6884100000        0.0000000000        0.0000000000
 H           1.0     2.3442100000        4.0602700000        0.0000000000
 H           1.0    -2.3442100000        4.0602700000        0.0000000000
 H           1.0     2.3442100000       -4.0602700000        0.0000000000
 H           1.0    -2.3442100000       -4.0602700000        0.0000000000

          INTERNUCLEAR DISTANCES (ANGS.)
          ------------------------------

                1 C          2 C          3 C          4 C          5 C     

   1 C       0.0000000    2.7940030 *  2.4196557 *  1.3969690 *  2.4196557 *
   2 C       2.7940030 *  0.0000000    1.3969690 *  2.4196557 *  1.3969690 *
   3 C       2.4196557 *  1.3969690 *  0.0000000    1.3969962 *  2.4195995 *
   4 C       1.3969690 *  2.4196557 *  1.3969962 *  0.0000000    2.7939327 *
   5 C       2.4196557 *  1.3969690 *  2.4195995 *  2.7939327 *  0.0000000  
   6 C       1.3969690 *  2.4196557 *  2.7939327 *  2.4195995 *  1.3969962 *
   7 H       1.0839984 *  3.8780014    3.4018852    2.1542813 *  3.4018852  
   8 H       3.8780014    1.0839984 *  2.1542813 *  3.4018852    2.1542813 *
   9 H       2.1542945 *  3.4018995    2.1543153 *  1.0840293 *  3.8779620  
  10 H       3.4018995    2.1542945 *  1.0840293 *  2.1543153 *  3.4018575  
  11 H       2.1542945 *  3.4018995    3.8779620    3.4018575    2.1543153 *
  12 H       3.4018995    2.1542945 *  3.4018575    3.8779620    1.0840293 *

                6 C          7 H          8 H          9 H         10 H     

   1 C       1.3969690 *  1.0839984 *  3.8780014    2.1542945 *  3.4018995  
   2 C       2.4196557 *  3.8780014    1.0839984 *  3.4018995    2.1542945 *
   3 C       2.7939327 *  3.4018852    2.1542813 *  2.1543153 *  1.0840293 *
   4 C       2.4195995 *  2.1542813 *  3.4018852    1.0840293 *  2.1543153 *
   5 C       1.3969962 *  3.4018852    2.1542813 *  3.8779620    3.4018575  
   6 C       0.0000000    2.1542813 *  3.4018852    3.4018575    3.8779620  
   7 H       2.1542813 *  0.0000000    4.9619998    2.4809930 *  4.2972170  
   8 H       3.4018852    4.9619998    0.0000000    4.2972170    2.4809930 *
   9 H       3.4018575    2.4809930 *  4.2972170    0.0000000    2.4810052 *
  10 H       3.8779620    4.2972170    2.4809930 *  2.4810052 *  0.0000000  
  11 H       1.0840293 *  2.4809930 *  4.2972170    4.2972050    4.9619913  
  12 H       2.1543153 *  4.2972170    2.4809930 *  4.9619913    4.2972050  

               11 H         12 H     

   1 C       2.1542945 *  3.4018995  
   2 C       3.4018995    2.1542945 *
   3 C       3.8779620    3.4018575  
   4 C       3.4018575    3.8779620  
   5 C       2.1543153 *  1.0840293 *
   6 C       1.0840293 *  2.1543153 *
   7 H       2.4809930 *  4.2972170  
   8 H       4.2972170    2.4809930 *
   9 H       4.2972050    4.9619913  
  10 H       4.9619913    4.2972050  
  11 H       0.0000000    2.4810052 *
  12 H       2.4810052 *  0.0000000  

  * ... LESS THAN  3.000


     ATOMIC BASIS SET
     ----------------
 THE CONTRACTED PRIMITIVE FUNCTIONS HAVE BEEN UNNORMALIZED
 THE CONTRACTED BASIS FUNCTIONS ARE NOW NORMALIZED TO UNITY

  SHELL TYPE  PRIMITIVE        EXPONENT          CONTRACTION COEFFICIENT(S)

 C         

     10   S       1          6665.0000000    0.000691583963
     10   S       2          1000.0000000    0.005325796153
     10   S       3           228.0000000    0.027060721042
     10   S       4            64.7100000    0.101656846141
     10   S       5            21.0600000    0.274574823617
     10   S       6             7.4950000    0.448294318924
     10   S       7             2.7970000    0.284902610715
     10   S       8             0.5215000    0.015194859206

     11   S       9          6665.0000000   -0.000293269653
     11   S      10          1000.0000000   -0.002318035474
     11   S      11           228.0000000   -0.011499786039
     11   S      12            64.7100000   -0.046826727010
     11   S      13            21.0600000   -0.128466168750
     11   S      14             7.4950000   -0.301266272463
     11   S      15             2.7970000   -0.255630702330
     11   S      16             0.5215000    1.093793361012

     12   S      17             0.1596000    1.000000000000

     13   P      18             9.4390000    0.056979251590
     13   P      19             2.0020000    0.313207211501
     13   P      20             0.5456000    0.760376741738

     14   P      21             0.1517000    1.000000000000

     15   D      22             0.5500000    1.000000000000

     16   S      23             0.0469000    1.000000000000

     17   P      24             0.0404100    1.000000000000

     18   D      25             0.1510000    1.000000000000

 C         

     46   S      26          6665.0000000    0.000691583963
     46   S      27          1000.0000000    0.005325796153
     46   S      28           228.0000000    0.027060721042
     46   S      29            64.7100000    0.101656846141
     46   S      30            21.0600000    0.274574823617
     46   S      31             7.4950000    0.448294318924
     46   S      32             2.7970000    0.284902610715
     46   S      33             0.5215000    0.015194859206

     47   S      34          6665.0000000   -0.000293269653
     47   S      35          1000.0000000   -0.002318035474
     47   S      36           228.0000000   -0.011499786039
     47   S      37            64.7100000   -0.046826727010
     47   S      38            21.0600000   -0.128466168750
     47   S      39             7.4950000   -0.301266272463
     47   S      40             2.7970000   -0.255630702330
     47   S      41             0.5215000    1.093793361012

     48   S      42             0.1596000    1.000000000000

     49   P      43             9.4390000    0.056979251590
     49   P      44             2.0020000    0.313207211501
     49   P      45             0.5456000    0.760376741738

     50   P      46             0.1517000    1.000000000000

     51   D      47             0.5500000    1.000000000000

     52   S      48             0.0469000    1.000000000000

     53   P      49             0.0404100    1.000000000000

     54   D      50             0.1510000    1.000000000000

 H         

     60   S      51            13.0100000    0.033498726390
     60   S      52             1.9620000    0.234800801174
     60   S      53             0.4446000    0.813682957883

     61   S      54             0.1220000    1.000000000000

     62   P      55             0.7270000    1.000000000000

     63   S      56             0.0297400    1.000000000000

     64   P      57             0.1410000    1.000000000000

 H         

     80   S      58            13.0100000    0.033498726390
     80   S      59             1.9620000    0.234800801174
     80   S      60             0.4446000    0.813682957883

     81   S      61             0.1220000    1.000000000000

     82   P      62             0.7270000    1.000000000000

     83   S      63             0.0297400    1.000000000000

     84   P      64             0.1410000    1.000000000000

 TOTAL NUMBER OF BASIS SET SHELLS             =   84
 NUMBER OF CARTESIAN GAUSSIAN BASIS FUNCTIONS =  204
 NOTE: THIS RUN WILL RESTRICT THE MO VARIATION SPACE TO SPHERICAL HARMONICS.
 THE NUMBER OF ORBITALS KEPT IN THE VARIATIONAL SPACE WILL BE PRINTED LATER.
 NUMBER OF ELECTRONS                          =   42
 CHARGE OF MOLECULE                           =    0
 SPIN MULTIPLICITY                            =    1
 NUMBER OF OCCUPIED ORBITALS (ALPHA)          =   21
 NUMBER OF OCCUPIED ORBITALS (BETA )          =   21
 TOTAL NUMBER OF ATOMS                        =   12
 THE NUCLEAR REPULSION ENERGY IS      203.2265195951

     $CONTRL OPTIONS
     ---------------
 SCFTYP=RHF          RUNTYP=OPTIMIZE     EXETYP=RUN     
 MPLEVL=       2     CITYP =NONE         CCTYP =NONE         VBTYP =NONE    
 DFTTYP=NONE         TDDFT =NONE    
 MULT  =       1     ICHARG=       0     NZVAR =       0     COORD =UNIQUE  
 PP    =NONE         RELWFN=NONE         LOCAL =NONE         NUMGRD=       F
 ISPHER=       1     NOSYM =       0     MAXIT =     100     UNITS =BOHR    
 PLTORB=       F     MOLPLT=       F     AIMPAC=       F     FRIEND=        
 NPRINT=       7     IREST =       0     GEOM  =INPUT   
 NORMF =       0     NORMP =       0     ITOL  =      20     ICUT  =       9
 INTTYP=BEST         GRDTYP=BEST         QMTTOL= 1.0E-06

     $SYSTEM OPTIONS
     ---------------
  REPLICATED MEMORY=    30000000 WORDS (ON EVERY NODE).
 DISTRIBUTED MEMDDI=           0 MILLION WORDS IN AGGREGATE,
 MEMDDI DISTRIBUTED OVER   1 PROCESSORS IS           0 WORDS/PROCESSOR.
 TOTAL MEMORY REQUESTED ON EACH PROCESSOR=    30000000 WORDS.
 TIMLIM=    10000000.00 MINUTES, OR    6944.4 DAYS.
 PARALL= F  BALTYP=  DLB     KDIAG=    0  COREFL= F
 MXSEQ2=     300 MXSEQ3=     150  mem10=         0

          ----------------
          PROPERTIES INPUT
          ----------------

     MOMENTS            FIELD           POTENTIAL          DENSITY
 IEMOM =       1   IEFLD =       0   IEPOT =       0   IEDEN =       0
 WHERE =COMASS     WHERE =NUCLEI     WHERE =NUCLEI     WHERE =NUCLEI  
 OUTPUT=BOTH       OUTPUT=BOTH       OUTPUT=BOTH       OUTPUT=BOTH    
 IEMINT=       0   IEFINT=       0                     IEDINT=       0
                                                       MORB  =       0
          EXTRAPOLATION IN EFFECT
          SOSCF IN EFFECT
 ORBITAL PRINTING OPTION: NPREO=     1   204     2     1

     -------------------------------
     INTEGRAL TRANSFORMATION OPTIONS
     -------------------------------
     NWORD  =            0
     CUTOFF = 1.0E-09     MPTRAN =       0
     DIRTRF =       T     AOINTS =DUP     

          ----------------------
          INTEGRAL INPUT OPTIONS
          ----------------------
 NOPK  =       1 NORDER=       0 SCHWRZ=       T

          -----------------------
          MP2 CONTROL INFORMATION
          -----------------------
          NACORE =        6  NBCORE =        6
          LMOMP2 =        F  AOINTS = DUP     
          METHOD =        2  NWORD  =               0
          MP2PRP =        F  OSPT   = NONE    
          CUTOFF = 1.00E-09  CPHFBS = BASISAO 
          CODE   = IMS     

          NUMBER OF CORE -A-  ORBITALS =     6
          NUMBER OF CORE -B-  ORBITALS =     6
          NUMBER OF OCC. -A-  ORBITALS =    21
          NUMBER OF OCC. -B-  ORBITALS =    21
          NUMBER OF MOLECULAR ORBITALS =   204
          NUMBER OF   BASIS  FUNCTIONS =   204


     ------------------------------------------
     THE POINT GROUP IS DNH, NAXIS= 2, ORDER= 8
     ------------------------------------------

 -- VARIATIONAL SPACE WILL BE RESTRICTED TO PURE SPHERICAL HARMONICS ONLY --
 AFTER EXCLUDING CONTAMINANT COMBINATIONS FROM THE CARTESIAN GAUSSIAN BASIS
 SET, THE NUMBER OF SPHERICAL HARMONICS KEPT IN THE VARIATION SPACE IS  192

     DIMENSIONS OF THE SYMMETRY SUBSPACES ARE
 AG  =   39     AU  =   11     B3U =   39     B3G =   11     B1G =   30
 B1U =   16     B2U =   30     B2G =   16

 ..... DONE SETTING UP THE RUN .....
 STEP CPU TIME =     0.01 TOTAL CPU TIME =          0.0 (      0.0 MIN)
 TOTAL WALL CLOCK TIME=          0.0 SECONDS, CPU UTILIZATION IS    33.33%


          -----------------------------
          STATIONARY POINT LOCATION RUN
          -----------------------------

 OBTAINING INITIAL HESSIAN, HESS=GUESS   
 CARTESIAN COORDINATE OPTIMIZATION USING BADGER'S RULE FORCE CONSTANT GUESS

          PARAMETERS CONTROLLING GEOMETRY SEARCH ARE
          METHOD =QA                  UPHESS =BFGS    
          NNEG   =         0          NFRZ   =         0
          NSTEP  =        50          IFOLOW =         1
          HESS   =GUESS               RESTAR =         F
          IHREP  =         0          HSSEND =         F
          NPRT   =         0          NPUN   =         0
          OPTTOL = 5.000E-04          RMIN   = 1.500E-03
          RMAX   = 1.000E-01          RLIM   = 7.000E-02
          DXMAX  = 3.000E-01          PURIFY =         F
          MOVIE  =         F          TRUPD  =         T
          TRMAX  = 5.000E-01          TRMIN  = 5.000E-02
          ITBMAT =         5          STPT   =         F
          STSTEP = 1.000E-02          PROJCT=          T

 BEGINNING GEOMETRY SEARCH POINT NSERCH=   0 ...

 COORDINATES OF SYMMETRY UNIQUE ATOMS (ANGS)
   ATOM   CHARGE       X              Y              Z
 ------------------------------------------------------------
 C           6.0  -1.3970014791   0.0000000000   0.0000000000
 C           6.0   0.6984980937  -1.2097997354   0.0000000000
 H           1.0  -2.4809999071   0.0000000000   0.0000000000
 H           1.0  -1.2405025994  -2.1486025098   0.0000000000
 COORDINATES OF ALL ATOMS ARE (ANGS)
   ATOM   CHARGE       X              Y              Z
 ------------------------------------------------------------
 C           6.0   1.3970014791  -0.0000000000   0.0000000000
 C           6.0  -1.3970014791   0.0000000000   0.0000000000
 C           6.0  -0.6984980937   1.2097997354   0.0000000000
 C           6.0   0.6984980937   1.2097997354   0.0000000000
 C           6.0  -0.6984980937  -1.2097997354   0.0000000000
 C           6.0   0.6984980937  -1.2097997354   0.0000000000
 H           1.0   2.4809999071  -0.0000000000   0.0000000000
 H           1.0  -2.4809999071   0.0000000000   0.0000000000
 H           1.0   1.2405025994   2.1486025098   0.0000000000
 H           1.0  -1.2405025994   2.1486025098   0.0000000000
 H           1.0   1.2405025994  -2.1486025098   0.0000000000
 H           1.0  -1.2405025994  -2.1486025098   0.0000000000

          ********************
          1 ELECTRON INTEGRALS
          ********************
 ...... END OF ONE-ELECTRON INTEGRALS ......
 STEP CPU TIME =     0.03 TOTAL CPU TIME =          0.0 (      0.0 MIN)
 TOTAL WALL CLOCK TIME=          0.1 SECONDS, CPU UTILIZATION IS    66.67%

          -------------
          GUESS OPTIONS
          -------------
          GUESS =HUCKEL            NORB  =       0          NORDER=       0
          MIX   =       F          PRTMO =       F          PUNMO =       F
          TOLZ  = 1.0E-08          TOLE  = 1.0E-05
          SYMDEN=       F          PURIFY=       F

 INITIAL GUESS ORBITALS GENERATED BY HUCKEL   ROUTINE.
 HUCKEL GUESS REQUIRES    313428 WORDS.

 STATISTICS FOR GENERATION OF SYMMETRY ORBITAL -Q- MATRIX
 NUMBER OF CARTESIAN ATOMIC ORBITALS=        204
 NUMBER OF SPHERICAL CONTAMINANTS DROPPED=    12
 NUMBER OF LINEARLY DEPENDENT MOS DROPPED=     0
 TOTAL NUMBER OF MOS IN VARIATION SPACE=     192

                    * * * * * WARNING * * * * *
 POSSIBLE LINEAR DEPENDENCE PROBLEMS DETECTED, INPUT QMTTOL= 1.0E-06,
 WITH     2 OVERLAP EIGENVALUES LYING BETWEEN 1.0E-05 AND QMTTOL.
 IF YOU EXPERIENCE SCF CONVERGENCE DIFFICULTIES WITH THE DENSITY ALMOST BUT
 NOT QUITE CONVERGED, YOU MAY NEED TO LOOSEN -QMTTOL- BY A FACTOR 5 TO 10.

 SYMMETRIES FOR INITIAL GUESS ORBITALS FOLLOW.   BOTH SET(S).
    21 ORBITALS ARE OCCUPIED (    6 CORE ORBITALS).
     7=AG       8=B3U      9=B2U     10=AG      11=B1G     12=AG      13=B3U 
    14=B1U     15=B2U     16=B3U     17=B2U     18=B2G     19=B3G     20=AG  
    21=B1G     22=AU      23=B1U     24=B2G     25=B2U     26=B3U     27=AG  
    28=AG      29=AG      30=AG      31=AG  
 ...... END OF INITIAL ORBITAL SELECTION ......
 STEP CPU TIME =     0.04 TOTAL CPU TIME =          0.1 (      0.0 MIN)
 TOTAL WALL CLOCK TIME=          0.1 SECONDS, CPU UTILIZATION IS    80.00%

                    ----------------------
                    AO INTEGRAL TECHNOLOGY
                    ----------------------
     S,P,L SHELL ROTATED AXIS INTEGRALS, REPROGRAMMED BY
        KAZUYA ISHIMURA (IMS) AND JOSE SIERRA (SYNSTAR).
     S,P,D,L SHELL ROTATED AXIS INTEGRALS PROGRAMMED BY
        KAZUYA ISHIMURA (INSTITUTE FOR MOLECULAR SCIENCE).
     S,P,D,F,G SHELL TO TOTAL QUARTET ANGULAR MOMENTUM SUM 5,
        ERIC PROGRAM BY GRAHAM FLETCHER (ELORET AND NASA ADVANCED
        SUPERCOMPUTING DIVISION, AMES RESEARCH CENTER).
     S,P,D,F,G,L SHELL GENERAL RYS QUADRATURE PROGRAMMED BY
        MICHEL DUPUIS (PACIFIC NORTHWEST NATIONAL LABORATORY).

          --------------------
          2 ELECTRON INTEGRALS
          --------------------

 DIRECT SCF METHOD SKIPS INTEGRAL STORAGE ON DISK.
 DIRECT TRANSFORMATION SKIPS AO INTEGRAL STORAGE ON DISK.
  ...... END OF TWO-ELECTRON INTEGRALS .....
 STEP CPU TIME =     0.01 TOTAL CPU TIME =          0.1 (      0.0 MIN)
 TOTAL WALL CLOCK TIME=          0.1 SECONDS, CPU UTILIZATION IS    64.29%

          --------------------------
                 RHF SCF CALCULATION
          --------------------------

     NUCLEAR ENERGY =       203.2265195951
     MAXIT =  100     NPUNCH=    2
     EXTRAP=T  DAMP=F  SHIFT=F  RSTRCT=F  DIIS=F  DEM=F  SOSCF=T
     DENSITY MATRIX CONV=  2.00E-06
     SOSCF WILL OPTIMIZE    3591 ORBITAL ROTATIONS, SOGTOL=   0.250
     MEMORY REQUIRED FOR RHF ITERS=    361068 WORDS.

 DIRECT SCF CALCULATION, SCHWRZ=T   FDIFF=T,  DIRTHR=  0.00E+00 NITDIR=10
 SCHWARZ INEQUALITY OVERHEAD:     20910 INTEGRALS, T=        0.01

                                                                                   NONZERO     BLOCKS
 ITER EX DEM     TOTAL ENERGY        E CHANGE  DENSITY CHANGE     ORB. GRAD      INTEGRALS    SKIPPED
   1  0  0     -230.1844958611  -230.1844958611   2.060775863   0.000000000       28241547      17737
          ---------------START SECOND ORDER SCF---------------
   2  1  0     -230.6898520740    -0.5053562129   0.595883164   0.039702527       28245939      18975
   3  2  0     -230.7216711760    -0.0318191020   0.106345035   0.015854909       28194181      28462
   4  3  0     -230.7276139437    -0.0059427677   0.019161822   0.003047937       28146503      35236
   5  4  0     -230.7279577326    -0.0003437890   0.019151072   0.000916217       28047593      48235
   6  5  0     -230.7279789283    -0.0000211957   0.005549271   0.000163960       27917849      61559
   7  6  0     -230.7279802791    -0.0000013508   0.000304045   0.000040745       27763020      76038
   8  7  0     -230.7279803258    -0.0000000467   0.000136960   0.000010588       27416820     105786
   9  8  0     -230.7279803289    -0.0000000031   0.000050334   0.000001637       27032244     132442
  10  9  0     -230.7279803287     0.0000000002   0.000007942   0.000000250       26489780     165725
  11 10  0     -230.7279803284     0.0000000003   0.000007477   0.000000031       25728618     220106
  12 11  0     -230.7279803281     0.0000000003   0.000002745   0.000000012       25138272     257039
  13 12  0     -230.7279803288    -0.0000000007   0.000012444   0.000000025       24956403     271572
  14 13  0     -230.7279803288    -0.0000000000   0.000007210   0.000000036       25913300     211983
  15 14  0     -230.7279803286     0.0000000002   0.000000000   0.000000008       25595340     231578

          -----------------
          DENSITY CONVERGED
          -----------------
     TIME TO FORM FOCK OPERATORS=      54.3 SECONDS (       3.6 SEC/ITER)
     FOCK TIME ON FIRST ITERATION=       4.2, LAST ITERATION=       3.6
     TIME TO SOLVE SCF EQUATIONS=       0.1 SECONDS (       0.0 SEC/ITER)

 FINAL RHF ENERGY IS     -230.7279803286 AFTER  15 ITERATIONS

          ------------
          EIGENVECTORS
          ------------

                      1          2          3          4          5
                  -11.2436   -11.2430   -11.2430   -11.2418   -11.2418
                     AG         B2U        B3U        B1G        AG  
    1  C  1  S    0.408763   0.000000   0.579386   0.000000   0.580375
    2  C  1  S    0.002622   0.000000   0.004995   0.000000   0.004699
    3  C  1  S   -0.007148   0.000000  -0.044498   0.000000  -0.032930
    4  C  1  X    0.000080   0.000000  -0.000057   0.000000   0.000034
    5  C  1  Y   -0.000000   0.000067  -0.000000  -0.000155  -0.000000
    6  C  1  Z   -0.000000   0.000000  -0.000000   0.000000  -0.000000
    7  C  1  X   -0.002423   0.000000   0.008482   0.000000   0.006711
    8  C  1  Y   -0.000000   0.030667  -0.000000  -0.008881  -0.000000
    9  C  1  Z   -0.000000   0.000000  -0.000000   0.000000  -0.000000
   10  C  1 XX    0.000162   0.000000   0.000110   0.000000   0.000098
   11  C  1 YY    0.000064   0.000000   0.000014   0.000000   0.000262
   12  C  1 ZZ   -0.000226   0.000000  -0.000124   0.000000  -0.000360
   13  C  1 XY   -0.000000  -0.000091  -0.000000  -0.000082  -0.000000
   14  C  1 XZ   -0.000000   0.000000  -0.000000   0.000000  -0.000000
   15  C  1 YZ   -0.000000   0.000000  -0.000000   0.000000  -0.000000
   16  C  1  S   -0.002571   0.000000  -0.018585   0.000000  -0.029940
   17  C  1  X   -0.000908   0.000000   0.000856   0.000000   0.008074
   18  C  1  Y   -0.000000   0.007802  -0.000000  -0.001538  -0.000000
   19  C  1  Z   -0.000000   0.000000  -0.000000   0.000000  -0.000000
   20  C  1 XX   -0.000411   0.000000   0.000359   0.000000   0.001176
   21  C  1 YY   -0.000352   0.000000  -0.002005   0.000000  -0.003747
   22  C  1 ZZ    0.000762   0.000000   0.001646   0.000000   0.002572
   23  C  1 XY   -0.000000  -0.008758  -0.000000   0.001487  -0.000000
   24  C  1 XZ   -0.000000   0.000000  -0.000000   0.000000  -0.000000
   25  C  1 YZ   -0.000000   0.000000  -0.000000   0.000000  -0.000000
   26  C  2  S    0.408763   0.000000  -0.579386   0.000000   0.580375
   27  C  2  S    0.002622   0.000000  -0.004995   0.000000   0.004699
   28  C  2  S   -0.007148   0.000000   0.044498   0.000000  -0.032930
   29  C  2  X   -0.000080   0.000000  -0.000057   0.000000  -0.000034
   30  C  2  Y   -0.000000   0.000067  -0.000000   0.000155  -0.000000
   31  C  2  Z   -0.000000   0.000000  -0.000000   0.000000  -0.000000
   32  C  2  X    0.002423   0.000000   0.008482   0.000000  -0.006711
   33  C  2  Y   -0.000000   0.030667  -0.000000   0.008881  -0.000000
   34  C  2  Z   -0.000000   0.000000  -0.000000   0.000000  -0.000000
   35  C  2 XX    0.000162   0.000000  -0.000110   0.000000   0.000098
   36  C  2 YY    0.000064   0.000000  -0.000014   0.000000   0.000262
   37  C  2 ZZ   -0.000226   0.000000   0.000124   0.000000  -0.000360
   38  C  2 XY   -0.000000   0.000091  -0.000000  -0.000082  -0.000000
   39  C  2 XZ   -0.000000   0.000000  -0.000000   0.000000  -0.000000
   40  C  2 YZ   -0.000000   0.000000  -0.000000   0.000000  -0.000000
   41  C  2  S   -0.002571   0.000000   0.018585   0.000000  -0.029940
   42  C  2  X    0.000908   0.000000   0.000856   0.000000  -0.008074
   43  C  2  Y   -0.000000   0.007802  -0.000000   0.001538  -0.000000
   44  C  2  Z   -0.000000   0.000000  -0.000000   0.000000  -0.000000
   45  C  2 XX   -0.000411   0.000000  -0.000359   0.000000   0.001176
   46  C  2 YY   -0.000352   0.000000   0.002005   0.000000  -0.003747
   47  C  2 ZZ    0.000762   0.000000  -0.001646   0.000000   0.002572
   48  C  2 XY   -0.000000   0.008758  -0.000000   0.001487  -0.000000
   49  C  2 XZ   -0.000000   0.000000  -0.000000   0.000000  -0.000000
   50  C  2 YZ   -0.000000   0.000000  -0.000000   0.000000  -0.000000
   51  C  3  S    0.409796   0.502192  -0.290435   0.502199  -0.289458
   52  C  3  S    0.002630   0.004329  -0.002503   0.004067  -0.002345
   53  C  3  S   -0.007205  -0.038562   0.022293  -0.028509   0.016452
   54  C  3  X   -0.000040   0.000054   0.000036  -0.000082  -0.000108
   55  C  3  Y    0.000069  -0.000026   0.000054  -0.000013  -0.000082
   56  C  3  Z   -0.000000   0.000000  -0.000000   0.000000  -0.000000
   57  C  3  X    0.001215   0.009603   0.025126  -0.006749  -0.004979
   58  C  3  Y   -0.002085   0.014034   0.009596   0.002817  -0.006754
   59  C  3  Z   -0.000000   0.000000  -0.000000   0.000000  -0.000000
   60  C  3 XX    0.000089   0.000067   0.000040   0.000222  -0.000057
   61  C  3 YY    0.000138   0.000041  -0.000102   0.000089  -0.000123
   62  C  3 ZZ   -0.000226  -0.000108   0.000063  -0.000312   0.000180
   63  C  3 XY   -0.000049  -0.000064  -0.000015   0.000050  -0.000077
   64  C  3 XZ   -0.000000   0.000000  -0.000000   0.000000  -0.000000
   65  C  3 YZ   -0.000000   0.000000  -0.000000   0.000000  -0.000000
   66  C  3  S   -0.002623  -0.016145   0.009379  -0.025926   0.014965
   67  C  3  X    0.000448   0.003002   0.006076  -0.004164   0.000865
   68  C  3  Y   -0.000773   0.002603   0.002990   0.005671  -0.004164
   69  C  3  Z   -0.000000   0.000000  -0.000000   0.000000  -0.000000
   70  C  3 XX   -0.000371   0.002057   0.006399  -0.002736   0.000292
   71  C  3 YY   -0.000396  -0.003485  -0.005572   0.000509   0.000992
   72  C  3 ZZ    0.000767   0.001428  -0.000827   0.002226  -0.001285
   73  C  3 XY    0.000023  -0.003215  -0.003198  -0.001761   0.001875
   74  C  3 XZ   -0.000000   0.000000  -0.000000   0.000000  -0.000000
   75  C  3 YZ   -0.000000   0.000000  -0.000000   0.000000  -0.000000
   76  C  4  S    0.409796   0.502192   0.290435  -0.502199  -0.289458
   77  C  4  S    0.002630   0.004329   0.002503  -0.004067  -0.002345
   78  C  4  S   -0.007205  -0.038562  -0.022293   0.028509   0.016452
   79  C  4  X    0.000040  -0.000054   0.000036  -0.000082   0.000108
   80  C  4  Y    0.000069  -0.000026  -0.000054   0.000013  -0.000082
   81  C  4  Z   -0.000000   0.000000  -0.000000   0.000000  -0.000000
   82  C  4  X   -0.001215  -0.009603   0.025126  -0.006749   0.004979
   83  C  4  Y   -0.002085   0.014034  -0.009596  -0.002817  -0.006754
   84  C  4  Z   -0.000000   0.000000  -0.000000   0.000000  -0.000000
   85  C  4 XX    0.000089   0.000067  -0.000040  -0.000222  -0.000057
   86  C  4 YY    0.000138   0.000041   0.000102  -0.000089  -0.000123
   87  C  4 ZZ   -0.000226  -0.000108  -0.000063   0.000312   0.000180
   88  C  4 XY    0.000049   0.000064  -0.000015   0.000050   0.000077
   89  C  4 XZ   -0.000000   0.000000  -0.000000   0.000000  -0.000000
   90  C  4 YZ   -0.000000   0.000000  -0.000000   0.000000  -0.000000
   91  C  4  S   -0.002623  -0.016145  -0.009379   0.025926   0.014965
   92  C  4  X   -0.000448  -0.003002   0.006076  -0.004164  -0.000865
   93  C  4  Y   -0.000773   0.002603  -0.002990  -0.005671  -0.004164
   94  C  4  Z   -0.000000   0.000000  -0.000000   0.000000  -0.000000
   95  C  4 XX   -0.000371   0.002057  -0.006399   0.002736   0.000292
   96  C  4 YY   -0.000396  -0.003485   0.005572  -0.000509   0.000992
   97  C  4 ZZ    0.000767   0.001428   0.000827  -0.002226  -0.001285
   98  C  4 XY   -0.000023   0.003215  -0.003198  -0.001761  -0.001875
   99  C  4 XZ   -0.000000   0.000000  -0.000000   0.000000  -0.000000
  100  C  4 YZ   -0.000000   0.000000  -0.000000   0.000000  -0.000000
  101  C  5  S    0.409796  -0.502192  -0.290435  -0.502199  -0.289458
  102  C  5  S    0.002630  -0.004329  -0.002503  -0.004067  -0.002345
  103  C  5  S   -0.007205   0.038562   0.022293   0.028509   0.016452
  104  C  5  X   -0.000040  -0.000054   0.000036   0.000082  -0.000108
  105  C  5  Y   -0.000069  -0.000026  -0.000054  -0.000013   0.000082
  106  C  5  Z   -0.000000   0.000000  -0.000000   0.000000  -0.000000
  107  C  5  X    0.001215  -0.009603   0.025126   0.006749  -0.004979
  108  C  5  Y    0.002085   0.014034  -0.009596   0.002817   0.006754
  109  C  5  Z   -0.000000   0.000000  -0.000000   0.000000  -0.000000
  110  C  5 XX    0.000089  -0.000067   0.000040  -0.000222  -0.000057
  111  C  5 YY    0.000138  -0.000041  -0.000102  -0.000089  -0.000123
  112  C  5 ZZ   -0.000226   0.000108   0.000063   0.000312   0.000180
  113  C  5 XY    0.000049  -0.000064   0.000015   0.000050   0.000077
  114  C  5 XZ   -0.000000   0.000000  -0.000000   0.000000  -0.000000
  115  C  5 YZ   -0.000000   0.000000  -0.000000   0.000000  -0.000000
  116  C  5  S   -0.002623   0.016145   0.009379   0.025926   0.014965
  117  C  5  X    0.000448  -0.003002   0.006076   0.004164   0.000865
  118  C  5  Y    0.000773   0.002603  -0.002990   0.005671   0.004164
  119  C  5  Z   -0.000000   0.000000  -0.000000   0.000000  -0.000000
  120  C  5 XX   -0.000371  -0.002057   0.006399   0.002736   0.000292
  121  C  5 YY   -0.000396   0.003485  -0.005572  -0.000509   0.000992
  122  C  5 ZZ    0.000767  -0.001428  -0.000827  -0.002226  -0.001285
  123  C  5 XY   -0.000023  -0.003215   0.003198  -0.001761  -0.001875
  124  C  5 XZ   -0.000000   0.000000  -0.000000   0.000000  -0.000000
  125  C  5 YZ   -0.000000   0.000000  -0.000000   0.000000  -0.000000
  126  C  6  S    0.409796  -0.502192   0.290435   0.502199  -0.289458
  127  C  6  S    0.002630  -0.004329   0.002503   0.004067  -0.002345
  128  C  6  S   -0.007205   0.038562  -0.022293  -0.028509   0.016452
  129  C  6  X    0.000040   0.000054   0.000036   0.000082   0.000108
  130  C  6  Y   -0.000069  -0.000026   0.000054   0.000013   0.000082
  131  C  6  Z   -0.000000   0.000000  -0.000000   0.000000  -0.000000
  132  C  6  X   -0.001215   0.009603   0.025126   0.006749   0.004979
  133  C  6  Y    0.002085   0.014034   0.009596  -0.002817   0.006754
  134  C  6  Z   -0.000000   0.000000  -0.000000   0.000000  -0.000000
  135  C  6 XX    0.000089  -0.000067  -0.000040   0.000222  -0.000057
  136  C  6 YY    0.000138  -0.000041   0.000102   0.000089  -0.000123
  137  C  6 ZZ   -0.000226   0.000108  -0.000063  -0.000312   0.000180
  138  C  6 XY   -0.000049   0.000064   0.000015   0.000050  -0.000077
  139  C  6 XZ   -0.000000   0.000000  -0.000000   0.000000  -0.000000
  140  C  6 YZ   -0.000000   0.000000  -0.000000   0.000000  -0.000000
  141  C  6  S   -0.002623   0.016145  -0.009379  -0.025926   0.014965
  142  C  6  X   -0.000448   0.003002   0.006076   0.004164  -0.000865
  143  C  6  Y    0.000773   0.002603   0.002990  -0.005671   0.004164
  144  C  6  Z   -0.000000   0.000000  -0.000000   0.000000  -0.000000
  145  C  6 XX   -0.000371  -0.002057  -0.006399  -0.002736   0.000292
  146  C  6 YY   -0.000396   0.003485   0.005572   0.000509   0.000992
  147  C  6 ZZ    0.000767  -0.001428   0.000827   0.002226  -0.001285
  148  C  6 XY    0.000023   0.003215   0.003198  -0.001761   0.001875
  149  C  6 XZ   -0.000000   0.000000  -0.000000   0.000000  -0.000000
  150  C  6 YZ   -0.000000   0.000000  -0.000000   0.000000  -0.000000
  151  H  7  S    0.000090   0.000000   0.000280   0.000000   0.000241
  152  H  7  S    0.007156   0.000000   0.004917   0.000000   0.001250
  153  H  7  X    0.000119   0.000000   0.000030   0.000000   0.000118
  154  H  7  Y   -0.000000  -0.000009  -0.000000   0.000042  -0.000000
  155  H  7  Z   -0.000000   0.000000  -0.000000   0.000000  -0.000000
  156  H  7  S    0.001012   0.000000  -0.001078   0.000000  -0.003387
  157  H  7  X   -0.002191   0.000000  -0.001776   0.000000  -0.000668
  158  H  7  Y   -0.000000   0.000899  -0.000000  -0.000396  -0.000000
  159  H  7  Z   -0.000000   0.000000  -0.000000   0.000000  -0.000000
  160  H  8  S    0.000090   0.000000  -0.000280   0.000000   0.000241
  161  H  8  S    0.007156   0.000000  -0.004917   0.000000   0.001250
  162  H  8  X   -0.000119   0.000000   0.000030   0.000000  -0.000118
  163  H  8  Y   -0.000000  -0.000009  -0.000000  -0.000042  -0.000000
  164  H  8  Z   -0.000000   0.000000  -0.000000   0.000000  -0.000000
  165  H  8  S    0.001012   0.000000   0.001078   0.000000  -0.003387
  166  H  8  X    0.002191   0.000000  -0.001776   0.000000   0.000668
  167  H  8  Y   -0.000000   0.000899  -0.000000   0.000396  -0.000000
  168  H  8  Z   -0.000000   0.000000  -0.000000   0.000000  -0.000000
  169  H  9  S    0.000091   0.000243   0.000140  -0.000208  -0.000120
  170  H  9  S    0.007156   0.004257   0.002456  -0.001074  -0.000612
  171  H  9  X    0.000060   0.000017   0.000001  -0.000033  -0.000061
  172  H  9  Y    0.000103   0.000021   0.000017  -0.000099  -0.000033
  173  H  9  Z   -0.000000   0.000000  -0.000000   0.000000  -0.000000
  174  H  9  S    0.001006  -0.000938  -0.000547   0.002935   0.001695
  175  H  9  X   -0.001096  -0.001158   0.000231   0.000116   0.000462
  176  H  9  Y   -0.001898  -0.001106  -0.001158   0.000598   0.000114
  177  H  9  Z   -0.000000   0.000000  -0.000000   0.000000  -0.000000
  178  H 10  S    0.000091   0.000243  -0.000140   0.000208  -0.000120
  179  H 10  S    0.007156   0.004257  -0.002456   0.001074  -0.000612
  180  H 10  X   -0.000060  -0.000017   0.000001  -0.000033   0.000061
  181  H 10  Y    0.000103   0.000021  -0.000017   0.000099  -0.000033
  182  H 10  Z   -0.000000   0.000000  -0.000000   0.000000  -0.000000
  183  H 10  S    0.001006  -0.000938   0.000547  -0.002935   0.001695
  184  H 10  X    0.001096   0.001158   0.000231   0.000116  -0.000462
  185  H 10  Y   -0.001898  -0.001106   0.001158  -0.000598   0.000114
  186  H 10  Z   -0.000000   0.000000  -0.000000   0.000000  -0.000000
  187  H 11  S    0.000091  -0.000243   0.000140   0.000208  -0.000120
  188  H 11  S    0.007156  -0.004257   0.002456   0.001074  -0.000612
  189  H 11  X    0.000060  -0.000017   0.000001   0.000033  -0.000061
  190  H 11  Y   -0.000103   0.000021  -0.000017  -0.000099   0.000033
  191  H 11  Z   -0.000000   0.000000  -0.000000   0.000000  -0.000000
  192  H 11  S    0.001006   0.000938  -0.000547  -0.002935   0.001695
  193  H 11  X   -0.001096   0.001158   0.000231  -0.000116   0.000462
  194  H 11  Y    0.001898  -0.001106   0.001158   0.000598  -0.000114
  195  H 11  Z   -0.000000   0.000000  -0.000000   0.000000  -0.000000
  196  H 12  S    0.000091  -0.000243  -0.000140  -0.000208  -0.000120
  197  H 12  S    0.007156  -0.004257  -0.002456  -0.001074  -0.000612
  198  H 12  X   -0.000060   0.000017   0.000001   0.000033   0.000061
  199  H 12  Y   -0.000103   0.000021   0.000017   0.000099   0.000033
  200  H 12  Z   -0.000000   0.000000  -0.000000   0.000000  -0.000000
  201  H 12  S    0.001006   0.000938   0.000547   0.002935   0.001695
  202  H 12  X    0.001096  -0.001158   0.000231  -0.000116  -0.000462
  203  H 12  Y    0.001898  -0.001106  -0.001158  -0.000598  -0.000114
  204  H 12  Z   -0.000000   0.000000  -0.000000   0.000000  -0.000000

                      6          7          8          9         10
                  -11.2412    -1.1513    -1.0163    -1.0163    -0.8251
                     B3U        AG         B3U        B2U        B1G 
    1  C  1  S    0.410768  -0.013508  -0.018521   0.000000  -0.000000
    2  C  1  S    0.003264   0.176805   0.246219   0.000000  -0.000000
    3  C  1  S   -0.025316   0.096629   0.205027   0.000000  -0.000000
    4  C  1  X    0.000093  -0.063916  -0.031080   0.000000  -0.000000
    5  C  1  Y   -0.000000   0.000000  -0.000000   0.116290   0.206608
    6  C  1  Z   -0.000000   0.000000  -0.000000   0.000000  -0.000000
    7  C  1  X    0.009034  -0.021846  -0.071312   0.000000  -0.000000
    8  C  1  Y   -0.000000   0.000000  -0.000000  -0.035411  -0.020705
    9  C  1  Z   -0.000000   0.000000  -0.000000   0.000000  -0.000000
   10  C  1 XX    0.000250   0.000570  -0.002121   0.000000  -0.000000
   11  C  1 YY    0.000165   0.008736   0.012468   0.000000  -0.000000
   12  C  1 ZZ   -0.000415  -0.009305  -0.010347   0.000000  -0.000000
   13  C  1 XY   -0.000000   0.000000  -0.000000  -0.019743  -0.016650
   14  C  1 XZ   -0.000000   0.000000  -0.000000   0.000000  -0.000000
   15  C  1 YZ   -0.000000   0.000000  -0.000000   0.000000  -0.000000
   16  C  1  S   -0.049213   0.001467  -0.186099   0.000000  -0.000000
   17  C  1  X    0.011659   0.003445  -0.001851   0.000000  -0.000000
   18  C  1  Y   -0.000000   0.000000  -0.000000   0.096216   0.042668
   19  C  1  Z   -0.000000   0.000000  -0.000000   0.000000  -0.000000
   20  C  1 XX   -0.000798  -0.006045  -0.022759   0.000000  -0.000000
   21  C  1 YY   -0.001684   0.007508   0.020957   0.000000  -0.000000
   22  C  1 ZZ    0.002482  -0.001462   0.001802   0.000000  -0.000000
   23  C  1 XY   -0.000000   0.000000  -0.000000   0.023750   0.015445
   24  C  1 XZ   -0.000000   0.000000  -0.000000   0.000000  -0.000000
   25  C  1 YZ   -0.000000   0.000000  -0.000000   0.000000  -0.000000
   26  C  2  S   -0.410768  -0.013508   0.018521   0.000000  -0.000000
   27  C  2  S   -0.003264   0.176805  -0.246219   0.000000  -0.000000
   28  C  2  S    0.025316   0.096629  -0.205027   0.000000  -0.000000
   29  C  2  X    0.000093   0.063916  -0.031080   0.000000  -0.000000
   30  C  2  Y   -0.000000   0.000000  -0.000000   0.116290  -0.206608
   31  C  2  Z   -0.000000   0.000000  -0.000000   0.000000  -0.000000
   32  C  2  X    0.009034   0.021846  -0.071312   0.000000  -0.000000
   33  C  2  Y   -0.000000   0.000000  -0.000000  -0.035411   0.020705
   34  C  2  Z   -0.000000   0.000000  -0.000000   0.000000  -0.000000
   35  C  2 XX   -0.000250   0.000570   0.002121   0.000000  -0.000000
   36  C  2 YY   -0.000165   0.008736  -0.012468   0.000000  -0.000000
   37  C  2 ZZ    0.000415  -0.009305   0.010347   0.000000  -0.000000
   38  C  2 XY   -0.000000   0.000000  -0.000000   0.019743  -0.016650
   39  C  2 XZ   -0.000000   0.000000  -0.000000   0.000000  -0.000000
   40  C  2 YZ   -0.000000   0.000000  -0.000000   0.000000  -0.000000
   41  C  2  S    0.049213   0.001467   0.186099   0.000000  -0.000000
   42  C  2  X    0.011659  -0.003445  -0.001851   0.000000  -0.000000
   43  C  2  Y   -0.000000   0.000000  -0.000000   0.096216  -0.042668
   44  C  2  Z   -0.000000   0.000000  -0.000000   0.000000  -0.000000
   45  C  2 XX    0.000798  -0.006045   0.022759   0.000000  -0.000000
   46  C  2 YY    0.001684   0.007508  -0.020957   0.000000  -0.000000
   47  C  2 ZZ   -0.002482  -0.001462  -0.001802   0.000000  -0.000000
   48  C  2 XY   -0.000000   0.000000  -0.000000  -0.023750   0.015445
   49  C  2 XZ   -0.000000   0.000000  -0.000000   0.000000  -0.000000
   50  C  2 YZ   -0.000000   0.000000  -0.000000   0.000000  -0.000000
   51  C  3  S    0.409718  -0.013507   0.009260  -0.016039   0.008569
   52  C  3  S    0.003255   0.176799  -0.123109   0.213231  -0.174251
   53  C  3  S   -0.025235   0.096634  -0.102527   0.177582  -0.225087
   54  C  3  X   -0.000047   0.031953   0.079446   0.063807   0.115395
   55  C  3  Y    0.000081  -0.055354   0.063813   0.005763   0.006736
   56  C  3  Z   -0.000000   0.000000  -0.000000   0.000000  -0.000000
   57  C  3  X   -0.004481   0.010919  -0.044374   0.015541  -0.024767
   58  C  3  Y    0.007826  -0.018921   0.015538  -0.062330   0.021988
   59  C  3  Z   -0.000000   0.000000  -0.000000   0.000000  -0.000000
   60  C  3 XX    0.000186   0.006694   0.008412   0.015043   0.004063
   61  C  3 YY    0.000228   0.002612  -0.013586  -0.006082  -0.007728
   62  C  3 ZZ   -0.000415  -0.009306   0.005174  -0.008961   0.003665
   63  C  3 XY   -0.000042   0.004083  -0.012197   0.001382  -0.004857
   64  C  3 XZ   -0.000000   0.000000  -0.000000   0.000000  -0.000000
   65  C  3 YZ   -0.000000   0.000000  -0.000000   0.000000  -0.000000
   66  C  3  S   -0.049178   0.001444   0.092991  -0.161121   0.313861
   67  C  3  X   -0.005821  -0.001727   0.071698   0.042470   0.043049
   68  C  3  Y    0.010100   0.002992   0.042479   0.022657  -0.031785
   69  C  3  Z   -0.000000   0.000000  -0.000000   0.000000  -0.000000
   70  C  3 XX   -0.001453   0.004125  -0.020444  -0.000215  -0.035162
   71  C  3 YY   -0.001026  -0.002661   0.021343  -0.001344   0.037432
   72  C  3 ZZ    0.002479  -0.001465  -0.000899   0.001559  -0.002269
   73  C  3 XY   -0.000446   0.006781  -0.000656   0.024872  -0.057081
   74  C  3 XZ   -0.000000   0.000000  -0.000000   0.000000  -0.000000
   75  C  3 YZ   -0.000000   0.000000  -0.000000   0.000000  -0.000000
   76  C  4  S   -0.409718  -0.013507  -0.009260  -0.016039  -0.008569
   77  C  4  S   -0.003255   0.176799   0.123109   0.213231   0.174251
   78  C  4  S    0.025235   0.096634   0.102527   0.177582   0.225087
   79  C  4  X   -0.000047  -0.031953   0.079446  -0.063807   0.115395
   80  C  4  Y   -0.000081  -0.055354  -0.063813   0.005763  -0.006736
   81  C  4  Z   -0.000000   0.000000  -0.000000   0.000000  -0.000000
   82  C  4  X   -0.004481  -0.010919  -0.044374  -0.015541  -0.024767
   83  C  4  Y   -0.007826  -0.018921  -0.015538  -0.062330  -0.021988
   84  C  4  Z   -0.000000   0.000000  -0.000000   0.000000  -0.000000
   85  C  4 XX   -0.000186   0.006694  -0.008412   0.015043  -0.004063
   86  C  4 YY   -0.000228   0.002612   0.013586  -0.006082   0.007728
   87  C  4 ZZ    0.000415  -0.009306  -0.005174  -0.008961  -0.003665
   88  C  4 XY   -0.000042  -0.004083  -0.012197  -0.001382  -0.004857
   89  C  4 XZ   -0.000000   0.000000  -0.000000   0.000000  -0.000000
   90  C  4 YZ   -0.000000   0.000000  -0.000000   0.000000  -0.000000
   91  C  4  S    0.049178   0.001444  -0.092991  -0.161121  -0.313861
   92  C  4  X   -0.005821   0.001727   0.071698  -0.042470   0.043049
   93  C  4  Y   -0.010100   0.002992  -0.042479   0.022657   0.031785
   94  C  4  Z   -0.000000   0.000000  -0.000000   0.000000  -0.000000
   95  C  4 XX    0.001453   0.004125   0.020444  -0.000215   0.035162
   96  C  4 YY    0.001026  -0.002661  -0.021343  -0.001344  -0.037432
   97  C  4 ZZ   -0.002479  -0.001465   0.000899   0.001559   0.002269
   98  C  4 XY   -0.000446  -0.006781  -0.000656  -0.024872  -0.057081
   99  C  4 XZ   -0.000000   0.000000  -0.000000   0.000000  -0.000000
  100  C  4 YZ   -0.000000   0.000000  -0.000000   0.000000  -0.000000
  101  C  5  S    0.409718  -0.013507   0.009260   0.016039  -0.008569
  102  C  5  S    0.003255   0.176799  -0.123109  -0.213231   0.174251
  103  C  5  S   -0.025235   0.096634  -0.102527  -0.177582   0.225087
  104  C  5  X   -0.000047   0.031953   0.079446  -0.063807  -0.115395
  105  C  5  Y   -0.000081   0.055354  -0.063813   0.005763   0.006736
  106  C  5  Z   -0.000000   0.000000  -0.000000   0.000000  -0.000000
  107  C  5  X   -0.004481   0.010919  -0.044374  -0.015541   0.024767
  108  C  5  Y   -0.007826   0.018921  -0.015538  -0.062330   0.021988
  109  C  5  Z   -0.000000   0.000000  -0.000000   0.000000  -0.000000
  110  C  5 XX    0.000186   0.006694   0.008412  -0.015043  -0.004063
  111  C  5 YY    0.000228   0.002612  -0.013586   0.006082   0.007728
  112  C  5 ZZ   -0.000415  -0.009306   0.005174   0.008961  -0.003665
  113  C  5 XY    0.000042  -0.004083   0.012197   0.001382  -0.004857
  114  C  5 XZ   -0.000000   0.000000  -0.000000   0.000000  -0.000000
  115  C  5 YZ   -0.000000   0.000000  -0.000000   0.000000  -0.000000
  116  C  5  S   -0.049178   0.001444   0.092991   0.161121  -0.313861
  117  C  5  X   -0.005821  -0.001727   0.071698  -0.042470  -0.043049
  118  C  5  Y   -0.010100  -0.002992  -0.042479   0.022657  -0.031785
  119  C  5  Z   -0.000000   0.000000  -0.000000   0.000000  -0.000000
  120  C  5 XX   -0.001453   0.004125  -0.020444   0.000215   0.035162
  121  C  5 YY   -0.001026  -0.002661   0.021343   0.001344  -0.037432
  122  C  5 ZZ    0.002479  -0.001465  -0.000899  -0.001559   0.002269
  123  C  5 XY    0.000446  -0.006781   0.000656   0.024872  -0.057081
  124  C  5 XZ   -0.000000   0.000000  -0.000000   0.000000  -0.000000
  125  C  5 YZ   -0.000000   0.000000  -0.000000   0.000000  -0.000000
  126  C  6  S   -0.409718  -0.013507  -0.009260   0.016039   0.008569
  127  C  6  S   -0.003255   0.176799   0.123109  -0.213231  -0.174251
  128  C  6  S    0.025235   0.096634   0.102527  -0.177582  -0.225087
  129  C  6  X   -0.000047  -0.031953   0.079446   0.063807  -0.115395
  130  C  6  Y    0.000081   0.055354   0.063813   0.005763  -0.006736
  131  C  6  Z   -0.000000   0.000000  -0.000000   0.000000  -0.000000
  132  C  6  X   -0.004481  -0.010919  -0.044374   0.015541   0.024767
  133  C  6  Y    0.007826   0.018921   0.015538  -0.062330  -0.021988
  134  C  6  Z   -0.000000   0.000000  -0.000000   0.000000  -0.000000
  135  C  6 XX   -0.000186   0.006694  -0.008412  -0.015043   0.004063
  136  C  6 YY   -0.000228   0.002612   0.013586   0.006082  -0.007728
  137  C  6 ZZ    0.000415  -0.009306  -0.005174   0.008961   0.003665
  138  C  6 XY    0.000042   0.004083   0.012197  -0.001382  -0.004857
  139  C  6 XZ   -0.000000   0.000000  -0.000000   0.000000  -0.000000
  140  C  6 YZ   -0.000000   0.000000  -0.000000   0.000000  -0.000000
  141  C  6  S    0.049178   0.001444  -0.092991   0.161121   0.313861
  142  C  6  X   -0.005821   0.001727   0.071698   0.042470  -0.043049
  143  C  6  Y    0.010100  -0.002992   0.042479   0.022657   0.031785
  144  C  6  Z   -0.000000   0.000000  -0.000000   0.000000  -0.000000
  145  C  6 XX    0.001453   0.004125   0.020444   0.000215  -0.035162
  146  C  6 YY    0.001026  -0.002661  -0.021343   0.001344   0.037432
  147  C  6 ZZ   -0.002479  -0.001465   0.000899  -0.001559  -0.002269
  148  C  6 XY    0.000446   0.006781   0.000656  -0.024872  -0.057081
  149  C  6 XZ   -0.000000   0.000000  -0.000000   0.000000  -0.000000
  150  C  6 YZ   -0.000000   0.000000  -0.000000   0.000000  -0.000000
  151  H  7  S    0.000099   0.048880   0.108034   0.000000  -0.000000
  152  H  7  S   -0.000465   0.004436   0.085504   0.000000  -0.000000
  153  H  7  X    0.000181  -0.007626  -0.014212   0.000000  -0.000000
  154  H  7  Y   -0.000000   0.000000  -0.000000   0.003671   0.004332
  155  H  7  Z   -0.000000   0.000000  -0.000000   0.000000  -0.000000
  156  H  7  S   -0.004165  -0.000918  -0.014333   0.000000  -0.000000
  157  H  7  X    0.000389   0.001156  -0.014124   0.000000  -0.000000
  158  H  7  Y   -0.000000   0.000000  -0.000000  -0.012672  -0.013689
  159  H  7  Z   -0.000000   0.000000  -0.000000   0.000000  -0.000000
  160  H  8  S   -0.000099   0.048880  -0.108034   0.000000  -0.000000
  161  H  8  S    0.000465   0.004436  -0.085504   0.000000  -0.000000
  162  H  8  X    0.000181   0.007626  -0.014212   0.000000  -0.000000
  163  H  8  Y   -0.000000   0.000000  -0.000000   0.003671  -0.004332
  164  H  8  Z   -0.000000   0.000000  -0.000000   0.000000  -0.000000
  165  H  8  S    0.004165  -0.000918   0.014333   0.000000  -0.000000
  166  H  8  X    0.000389  -0.001156  -0.014124   0.000000  -0.000000
  167  H  8  Y   -0.000000   0.000000  -0.000000  -0.012672   0.013689
  168  H  8  Z   -0.000000   0.000000  -0.000000   0.000000  -0.000000
  169  H  9  S   -0.000099   0.048876   0.054013   0.093558   0.138069
  170  H  9  S    0.000474   0.004447   0.042752   0.074046   0.157927
  171  H  9  X   -0.000091  -0.003812  -0.000799  -0.007743  -0.004958
  172  H  9  Y   -0.000157  -0.006603  -0.007743  -0.009741  -0.012920
  173  H  9  Z   -0.000000   0.000000  -0.000000   0.000000  -0.000000
  174  H  9  S    0.004163  -0.000924  -0.007161  -0.012408  -0.023321
  175  H  9  X   -0.000195   0.000575  -0.013034  -0.000629  -0.019404
  176  H  9  Y   -0.000340   0.000998  -0.000629  -0.013760  -0.019912
  177  H  9  Z   -0.000000   0.000000  -0.000000   0.000000  -0.000000
  178  H 10  S    0.000099   0.048876  -0.054013   0.093558  -0.138069
  179  H 10  S   -0.000474   0.004447  -0.042752   0.074046  -0.157927
  180  H 10  X   -0.000091   0.003812  -0.000799   0.007743  -0.004958
  181  H 10  Y    0.000157  -0.006603   0.007743  -0.009741   0.012920
  182  H 10  Z   -0.000000   0.000000  -0.000000   0.000000  -0.000000
  183  H 10  S   -0.004163  -0.000924   0.007161  -0.012408   0.023321
  184  H 10  X   -0.000195  -0.000575  -0.013034   0.000629  -0.019404
  185  H 10  Y    0.000340   0.000998   0.000629  -0.013760   0.019912
  186  H 10  Z   -0.000000   0.000000  -0.000000   0.000000  -0.000000
  187  H 11  S   -0.000099   0.048876   0.054013  -0.093558  -0.138069
  188  H 11  S    0.000474   0.004447   0.042752  -0.074046  -0.157927
  189  H 11  X   -0.000091  -0.003812  -0.000799   0.007743   0.004958
  190  H 11  Y    0.000157   0.006603   0.007743  -0.009741  -0.012920
  191  H 11  Z   -0.000000   0.000000  -0.000000   0.000000  -0.000000
  192  H 11  S    0.004163  -0.000924  -0.007161   0.012408   0.023321
  193  H 11  X   -0.000195   0.000575  -0.013034   0.000629   0.019404
  194  H 11  Y    0.000340  -0.000998   0.000629  -0.013760  -0.019912
  195  H 11  Z   -0.000000   0.000000  -0.000000   0.000000  -0.000000
  196  H 12  S    0.000099   0.048876  -0.054013  -0.093558   0.138069
  197  H 12  S   -0.000474   0.004447  -0.042752  -0.074046   0.157927
  198  H 12  X   -0.000091   0.003812  -0.000799  -0.007743   0.004958
  199  H 12  Y   -0.000157   0.006603  -0.007743  -0.009741   0.012920
  200  H 12  Z   -0.000000   0.000000  -0.000000   0.000000  -0.000000
  201  H 12  S   -0.004163  -0.000924   0.007161   0.012408  -0.023321
  202  H 12  X   -0.000195  -0.000575  -0.013034  -0.000629   0.019404
  203  H 12  Y   -0.000340  -0.000998  -0.000629  -0.013760   0.019912
  204  H 12  Z   -0.000000   0.000000  -0.000000   0.000000  -0.000000

                     11         12         13         14         15
                   -0.8251    -0.7091    -0.6449    -0.6188    -0.5881
                     AG         AG         B3U        B2U        B3U 
    1  C  1  S    0.009895  -0.002850   0.003281   0.000000   0.000344
    2  C  1  S   -0.201206   0.012903  -0.117479   0.000000  -0.042445
    3  C  1  S   -0.259873  -0.040701  -0.117263   0.000000  -0.125901
    4  C  1  X   -0.059900   0.191844  -0.129307   0.000000   0.291447
    5  C  1  Y   -0.000000   0.000000  -0.000000   0.276849  -0.000000
    6  C  1  Z   -0.000000   0.000000  -0.000000   0.000000  -0.000000
    7  C  1  X    0.036295   0.012065  -0.028285   0.000000   0.077626
    8  C  1  Y   -0.000000   0.000000  -0.000000   0.096711  -0.000000
    9  C  1  Z   -0.000000   0.000000  -0.000000   0.000000  -0.000000
   10  C  1 XX   -0.001314  -0.002030  -0.021635   0.000000   0.009093
   11  C  1 YY   -0.002918   0.002141   0.022502   0.000000  -0.009268
   12  C  1 ZZ    0.004232  -0.000111  -0.000866   0.000000   0.000175
   13  C  1 XY   -0.000000   0.000000  -0.000000  -0.011145  -0.000000
   14  C  1 XZ   -0.000000   0.000000  -0.000000   0.000000  -0.000000
   15  C  1 YZ   -0.000000   0.000000  -0.000000   0.000000  -0.000000
   16  C  1  S    0.362450  -0.026165   1.397041   0.000000  -0.121238
   17  C  1  X   -0.056644  -0.011808  -0.285949   0.000000  -0.025707
   18  C  1  Y   -0.000000   0.000000  -0.000000   0.008263  -0.000000
   19  C  1  Z   -0.000000   0.000000  -0.000000   0.000000  -0.000000
   20  C  1 XX    0.071700  -0.023945   0.099866   0.000000  -0.048709
   21  C  1 YY   -0.069080   0.022404  -0.091002   0.000000   0.048496
   22  C  1 ZZ   -0.002620   0.001541  -0.008863   0.000000   0.000213
   23  C  1 XY   -0.000000   0.000000  -0.000000   0.018209  -0.000000
   24  C  1 XZ   -0.000000   0.000000  -0.000000   0.000000  -0.000000
   25  C  1 YZ   -0.000000   0.000000  -0.000000   0.000000  -0.000000
   26  C  2  S    0.009895  -0.002850  -0.003281   0.000000  -0.000344
   27  C  2  S   -0.201206   0.012903   0.117479   0.000000   0.042445
   28  C  2  S   -0.259873  -0.040701   0.117263   0.000000   0.125901
   29  C  2  X    0.059900  -0.191844  -0.129307   0.000000   0.291447
   30  C  2  Y   -0.000000   0.000000  -0.000000   0.276849  -0.000000
   31  C  2  Z   -0.000000   0.000000  -0.000000   0.000000  -0.000000
   32  C  2  X   -0.036295  -0.012065  -0.028285   0.000000   0.077626
   33  C  2  Y   -0.000000   0.000000  -0.000000   0.096711  -0.000000
   34  C  2  Z   -0.000000   0.000000  -0.000000   0.000000  -0.000000
   35  C  2 XX   -0.001314  -0.002030   0.021635   0.000000  -0.009093
   36  C  2 YY   -0.002918   0.002141  -0.022502   0.000000   0.009268
   37  C  2 ZZ    0.004232  -0.000111   0.000866   0.000000  -0.000175
   38  C  2 XY   -0.000000   0.000000  -0.000000   0.011145  -0.000000
   39  C  2 XZ   -0.000000   0.000000  -0.000000   0.000000  -0.000000
   40  C  2 YZ   -0.000000   0.000000  -0.000000   0.000000  -0.000000
   41  C  2  S    0.362450  -0.026165  -1.397041   0.000000   0.121238
   42  C  2  X    0.056644   0.011808  -0.285949   0.000000  -0.025707
   43  C  2  Y   -0.000000   0.000000  -0.000000   0.008263  -0.000000
   44  C  2  Z   -0.000000   0.000000  -0.000000   0.000000  -0.000000
   45  C  2 XX    0.071700  -0.023945  -0.099866   0.000000   0.048709
   46  C  2 YY   -0.069080   0.022404   0.091002   0.000000  -0.048496
   47  C  2 ZZ   -0.002620   0.001541   0.008863   0.000000  -0.000213
   48  C  2 XY   -0.000000   0.000000  -0.000000  -0.018209  -0.000000
   49  C  2 XZ   -0.000000   0.000000  -0.000000   0.000000  -0.000000
   50  C  2 YZ   -0.000000   0.000000  -0.000000   0.000000  -0.000000
   51  C  3  S   -0.004948  -0.002850   0.003281   0.000000  -0.000171
   52  C  3  S    0.100604   0.012914  -0.117488  -0.000001   0.021203
   53  C  3  S    0.129946  -0.040667  -0.117331  -0.000010   0.062911
   54  C  3  X    0.139983  -0.095905   0.064632  -0.239762   0.007614
   55  C  3  Y    0.115387   0.166144  -0.111930  -0.138420  -0.163898
   56  C  3  Z   -0.000000   0.000000  -0.000000   0.000000  -0.000000
   57  C  3  X   -0.006503  -0.006044   0.014130  -0.083747  -0.036189
   58  C  3  Y   -0.024707   0.010466  -0.024483  -0.048343  -0.065756
   59  C  3  Z   -0.000000   0.000000  -0.000000   0.000000  -0.000000
   60  C  3 XX    0.012072   0.001100   0.011469  -0.008358  -0.011143
   61  C  3 YY   -0.009956  -0.000989  -0.010602   0.008358   0.011230
   62  C  3 ZZ   -0.002116  -0.000111  -0.000866   0.000000  -0.000088
   63  C  3 XY   -0.006809   0.002086   0.022065   0.005573   0.013584
   64  C  3 XZ   -0.000000   0.000000  -0.000000   0.000000  -0.000000
   65  C  3 YZ   -0.000000   0.000000  -0.000000   0.000000  -0.000000
   66  C  3  S   -0.181222  -0.026136   1.396966  -0.000002   0.060735
   67  C  3  X    0.017870   0.005907   0.142955  -0.007156   0.036202
   68  C  3  Y    0.043021  -0.010233  -0.247648  -0.004130   0.035722
   69  C  3  Z   -0.000000   0.000000  -0.000000   0.000000  -0.000000
   70  C  3 XX    0.006901   0.010820  -0.043290   0.013658   0.005677
   71  C  3 YY   -0.008210  -0.012363   0.052153  -0.013659  -0.005571
   72  C  3 ZZ    0.001309   0.001543  -0.008863   0.000001  -0.000107
   73  C  3 XY    0.041887   0.023183  -0.095419  -0.009107  -0.036198
   74  C  3 XZ   -0.000000   0.000000  -0.000000   0.000000  -0.000000
   75  C  3 YZ   -0.000000   0.000000  -0.000000   0.000000  -0.000000
   76  C  4  S   -0.004948  -0.002850  -0.003281   0.000000   0.000171
   77  C  4  S    0.100604   0.012914   0.117488  -0.000001  -0.021203
   78  C  4  S    0.129946  -0.040667   0.117331  -0.000010  -0.062911
   79  C  4  X   -0.139983   0.095905   0.064632   0.239762   0.007614
   80  C  4  Y    0.115387   0.166144   0.111930  -0.138420   0.163898
   81  C  4  Z   -0.000000   0.000000  -0.000000   0.000000  -0.000000
   82  C  4  X    0.006503   0.006044   0.014130   0.083747  -0.036189
   83  C  4  Y   -0.024707   0.010466   0.024483  -0.048343   0.065756
   84  C  4  Z   -0.000000   0.000000  -0.000000   0.000000  -0.000000
   85  C  4 XX    0.012072   0.001100  -0.011469  -0.008358   0.011143
   86  C  4 YY   -0.009956  -0.000989   0.010602   0.008358  -0.011230
   87  C  4 ZZ   -0.002116  -0.000111   0.000866   0.000000   0.000088
   88  C  4 XY    0.006809  -0.002086   0.022065  -0.005573   0.013584
   89  C  4 XZ   -0.000000   0.000000  -0.000000   0.000000  -0.000000
   90  C  4 YZ   -0.000000   0.000000  -0.000000   0.000000  -0.000000
   91  C  4  S   -0.181222  -0.026136  -1.396966  -0.000002  -0.060735
   92  C  4  X   -0.017870  -0.005907   0.142955   0.007156   0.036202
   93  C  4  Y    0.043021  -0.010233   0.247648  -0.004130  -0.035722
   94  C  4  Z   -0.000000   0.000000  -0.000000   0.000000  -0.000000
   95  C  4 XX    0.006901   0.010820   0.043290   0.013658  -0.005677
   96  C  4 YY   -0.008210  -0.012363  -0.052153  -0.013659   0.005571
   97  C  4 ZZ    0.001309   0.001543   0.008863   0.000001   0.000107
   98  C  4 XY   -0.041887  -0.023183  -0.095419   0.009107  -0.036198
   99  C  4 XZ   -0.000000   0.000000  -0.000000   0.000000  -0.000000
  100  C  4 YZ   -0.000000   0.000000  -0.000000   0.000000  -0.000000
  101  C  5  S   -0.004948  -0.002850   0.003281  -0.000000  -0.000171
  102  C  5  S    0.100604   0.012914  -0.117488   0.000001   0.021203
  103  C  5  S    0.129946  -0.040667  -0.117331   0.000010   0.062911
  104  C  5  X    0.139983  -0.095905   0.064632   0.239762   0.007614
  105  C  5  Y   -0.115387  -0.166144   0.111930  -0.138420   0.163898
  106  C  5  Z   -0.000000   0.000000  -0.000000   0.000000  -0.000000
  107  C  5  X   -0.006503  -0.006044   0.014130   0.083747  -0.036189
  108  C  5  Y    0.024707  -0.010466   0.024483  -0.048343   0.065756
  109  C  5  Z   -0.000000   0.000000  -0.000000   0.000000  -0.000000
  110  C  5 XX    0.012072   0.001100   0.011469   0.008358  -0.011143
  111  C  5 YY   -0.009956  -0.000989  -0.010602  -0.008358   0.011230
  112  C  5 ZZ   -0.002116  -0.000111  -0.000866  -0.000000  -0.000088
  113  C  5 XY    0.006809  -0.002086  -0.022065   0.005573  -0.013584
  114  C  5 XZ   -0.000000   0.000000  -0.000000   0.000000  -0.000000
  115  C  5 YZ   -0.000000   0.000000  -0.000000   0.000000  -0.000000
  116  C  5  S   -0.181222  -0.026136   1.396966   0.000002   0.060735
  117  C  5  X    0.017870   0.005907   0.142955   0.007156   0.036202
  118  C  5  Y   -0.043021   0.010233   0.247648  -0.004130  -0.035722
  119  C  5  Z   -0.000000   0.000000  -0.000000   0.000000  -0.000000
  120  C  5 XX    0.006901   0.010820  -0.043290  -0.013658   0.005677
  121  C  5 YY   -0.008210  -0.012363   0.052153   0.013659  -0.005571
  122  C  5 ZZ    0.001309   0.001543  -0.008863  -0.000001  -0.000107
  123  C  5 XY   -0.041887  -0.023183   0.095419  -0.009107   0.036198
  124  C  5 XZ   -0.000000   0.000000  -0.000000   0.000000  -0.000000
  125  C  5 YZ   -0.000000   0.000000  -0.000000   0.000000  -0.000000
  126  C  6  S   -0.004948  -0.002850  -0.003281  -0.000000   0.000171
  127  C  6  S    0.100604   0.012914   0.117488   0.000001  -0.021203
  128  C  6  S    0.129946  -0.040667   0.117331   0.000010  -0.062911
  129  C  6  X   -0.139983   0.095905   0.064632  -0.239762   0.007614
  130  C  6  Y   -0.115387  -0.166144  -0.111930  -0.138420  -0.163898
  131  C  6  Z   -0.000000   0.000000  -0.000000   0.000000  -0.000000
  132  C  6  X    0.006503   0.006044   0.014130  -0.083747  -0.036189
  133  C  6  Y    0.024707  -0.010466  -0.024483  -0.048343  -0.065756
  134  C  6  Z   -0.000000   0.000000  -0.000000   0.000000  -0.000000
  135  C  6 XX    0.012072   0.001100  -0.011469   0.008358   0.011143
  136  C  6 YY   -0.009956  -0.000989   0.010602  -0.008358  -0.011230
  137  C  6 ZZ   -0.002116  -0.000111   0.000866  -0.000000   0.000088
  138  C  6 XY   -0.006809   0.002086  -0.022065  -0.005573  -0.013584
  139  C  6 XZ   -0.000000   0.000000  -0.000000   0.000000  -0.000000
  140  C  6 YZ   -0.000000   0.000000  -0.000000   0.000000  -0.000000
  141  C  6  S   -0.181222  -0.026136  -1.396966   0.000002  -0.060735
  142  C  6  X   -0.017870  -0.005907   0.142955  -0.007156   0.036202
  143  C  6  Y   -0.043021   0.010233  -0.247648  -0.004130   0.035722
  144  C  6  Z   -0.000000   0.000000  -0.000000   0.000000  -0.000000
  145  C  6 XX    0.006901   0.010820   0.043290  -0.013658  -0.005677
  146  C  6 YY   -0.008210  -0.012363  -0.052153   0.013659   0.005571
  147  C  6 ZZ    0.001309   0.001543   0.008863  -0.000001   0.000107
  148  C  6 XY    0.041887   0.023183   0.095419   0.009107   0.036198
  149  C  6 XZ   -0.000000   0.000000  -0.000000   0.000000  -0.000000
  150  C  6 YZ   -0.000000   0.000000  -0.000000   0.000000  -0.000000
  151  H  7  S   -0.159443   0.156469  -0.189138   0.000000   0.228382
  152  H  7  S   -0.182384   0.114127  -0.319960   0.000000   0.204175
  153  H  7  X    0.015784  -0.011380   0.012354   0.000000  -0.012517
  154  H  7  Y   -0.000000   0.000000  -0.000000   0.005354  -0.000000
  155  H  7  Z   -0.000000   0.000000  -0.000000   0.000000  -0.000000
  156  H  7  S    0.026930   0.012181   0.084401   0.000000   0.014583
  157  H  7  X    0.031120  -0.015259   0.060973   0.000000  -0.028905
  158  H  7  Y   -0.000000   0.000000  -0.000000  -0.018434  -0.000000
  159  H  7  Z   -0.000000   0.000000  -0.000000   0.000000  -0.000000
  160  H  8  S   -0.159443   0.156469   0.189138   0.000000  -0.228382
  161  H  8  S   -0.182384   0.114127   0.319960   0.000000  -0.204175
  162  H  8  X   -0.015784   0.011380   0.012354   0.000000  -0.012517
  163  H  8  Y   -0.000000   0.000000  -0.000000   0.005354  -0.000000
  164  H  8  Z   -0.000000   0.000000  -0.000000   0.000000  -0.000000
  165  H  8  S    0.026930   0.012181  -0.084401   0.000000  -0.014583
  166  H  8  X   -0.031120   0.015259   0.060973   0.000000  -0.028905
  167  H  8  Y   -0.000000   0.000000  -0.000000  -0.018434  -0.000000
  168  H  8  Z   -0.000000   0.000000  -0.000000   0.000000  -0.000000
  169  H  9  S    0.079711   0.156468   0.189093   0.000001   0.114226
  170  H  9  S    0.091183   0.114107   0.319912  -0.000003   0.102140
  171  H  9  X   -0.007194  -0.005690  -0.006175   0.004636  -0.005356
  172  H  9  Y   -0.004958  -0.009855  -0.010697  -0.002677  -0.004137
  173  H  9  Z   -0.000000   0.000000  -0.000000   0.000000  -0.000000
  174  H  9  S   -0.013466   0.012184  -0.084396  -0.000001   0.007290
  175  H  9  X    0.002488  -0.007625  -0.030485  -0.015964  -0.001102
  176  H  9  Y   -0.019403  -0.013208  -0.052799   0.009217  -0.016061
  177  H  9  Z   -0.000000   0.000000  -0.000000   0.000000  -0.000000
  178  H 10  S    0.079711   0.156468  -0.189093   0.000001  -0.114226
  179  H 10  S    0.091183   0.114107  -0.319912  -0.000003  -0.102140
  180  H 10  X    0.007194   0.005690  -0.006175  -0.004636  -0.005356
  181  H 10  Y   -0.004958  -0.009855   0.010697  -0.002677   0.004137
  182  H 10  Z   -0.000000   0.000000  -0.000000   0.000000  -0.000000
  183  H 10  S   -0.013466   0.012184   0.084396  -0.000001  -0.007290
  184  H 10  X   -0.002488   0.007625  -0.030485   0.015964  -0.001102
  185  H 10  Y   -0.019403  -0.013208   0.052799   0.009217   0.016061
  186  H 10  Z   -0.000000   0.000000  -0.000000   0.000000  -0.000000
  187  H 11  S    0.079711   0.156468   0.189093  -0.000001   0.114226
  188  H 11  S    0.091183   0.114107   0.319912   0.000003   0.102140
  189  H 11  X   -0.007194  -0.005690  -0.006175  -0.004636  -0.005356
  190  H 11  Y    0.004958   0.009855   0.010697  -0.002677   0.004137
  191  H 11  Z   -0.000000   0.000000  -0.000000   0.000000  -0.000000
  192  H 11  S   -0.013466   0.012184  -0.084396   0.000001   0.007290
  193  H 11  X    0.002488  -0.007625  -0.030485   0.015964  -0.001102
  194  H 11  Y    0.019403   0.013208   0.052799   0.009217   0.016061
  195  H 11  Z   -0.000000   0.000000  -0.000000   0.000000  -0.000000
  196  H 12  S    0.079711   0.156468  -0.189093  -0.000001  -0.114226
  197  H 12  S    0.091183   0.114107  -0.319912   0.000003  -0.102140
  198  H 12  X    0.007194   0.005690  -0.006175   0.004636  -0.005356
  199  H 12  Y    0.004958   0.009855  -0.010697  -0.002677  -0.004137
  200  H 12  Z   -0.000000   0.000000  -0.000000   0.000000  -0.000000
  201  H 12  S   -0.013466   0.012184   0.084396   0.000001  -0.007290
  202  H 12  X   -0.002488   0.007625  -0.030485  -0.015964  -0.001102
  203  H 12  Y    0.019403   0.013208  -0.052799   0.009217  -0.016061
  204  H 12  Z   -0.000000   0.000000  -0.000000   0.000000  -0.000000

                     16         17         18         19         20
                   -0.5880    -0.5006    -0.4947    -0.4947    -0.3360
                     B2U        B1U        AG         B1G        B2G 
    1  C  1  S    0.000000  -0.000000  -0.001361  -0.000000   0.000000
    2  C  1  S    0.000000  -0.000000  -0.011243  -0.000000   0.000000
    3  C  1  S    0.000000  -0.000000  -0.073275  -0.000000   0.000000
    4  C  1  X    0.000000  -0.000000   0.222071  -0.000000   0.000000
    5  C  1  Y   -0.087018  -0.000000  -0.000000  -0.256204   0.000000
    6  C  1  Z    0.000000   0.215627  -0.000000  -0.000000   0.321006
    7  C  1  X    0.000000  -0.000000   0.057706  -0.000000   0.000000
    8  C  1  Y   -0.074179  -0.000000  -0.000000  -0.156017   0.000000
    9  C  1  Z    0.000000   0.125284  -0.000000  -0.000000   0.238118
   10  C  1 XX    0.000000  -0.000000   0.029630  -0.000000   0.000000
   11  C  1 YY    0.000000  -0.000000  -0.029244  -0.000000   0.000000
   12  C  1 ZZ    0.000000  -0.000000  -0.000385  -0.000000   0.000000
   13  C  1 XY    0.020761  -0.000000  -0.000000   0.021850   0.000000
   14  C  1 XZ    0.000000  -0.015746  -0.000000  -0.000000  -0.012400
   15  C  1 YZ    0.000000  -0.000000  -0.000000  -0.000000   0.000000
   16  C  1  S    0.000000  -0.000000  -0.165231  -0.000000   0.000000
   17  C  1  X    0.000000  -0.000000   0.018404  -0.000000   0.000000
   18  C  1  Y    0.056817  -0.000000  -0.000000  -0.001755   0.000000
   19  C  1  Z    0.000000   0.004036  -0.000000  -0.000000   0.035186
   20  C  1 XX    0.000000  -0.000000  -0.059693  -0.000000   0.000000
   21  C  1 YY    0.000000  -0.000000   0.065017  -0.000000   0.000000
   22  C  1 ZZ    0.000000  -0.000000  -0.005324  -0.000000   0.000000
   23  C  1 XY   -0.027388  -0.000000  -0.000000  -0.032234   0.000000
   24  C  1 XZ    0.000000  -0.000386  -0.000000  -0.000000  -0.003538
   25  C  1 YZ    0.000000  -0.000000  -0.000000  -0.000000   0.000000
   26  C  2  S    0.000000  -0.000000  -0.001361  -0.000000   0.000000
   27  C  2  S    0.000000  -0.000000  -0.011243  -0.000000   0.000000
   28  C  2  S    0.000000  -0.000000  -0.073275  -0.000000   0.000000
   29  C  2  X    0.000000  -0.000000  -0.222071  -0.000000   0.000000
   30  C  2  Y   -0.087018  -0.000000  -0.000000   0.256204   0.000000
   31  C  2  Z    0.000000   0.215627  -0.000000  -0.000000  -0.321006
   32  C  2  X    0.000000  -0.000000  -0.057706  -0.000000   0.000000
   33  C  2  Y   -0.074179  -0.000000  -0.000000   0.156017   0.000000
   34  C  2  Z    0.000000   0.125284  -0.000000  -0.000000  -0.238118
   35  C  2 XX    0.000000  -0.000000   0.029630  -0.000000   0.000000
   36  C  2 YY    0.000000  -0.000000  -0.029244  -0.000000   0.000000
   37  C  2 ZZ    0.000000  -0.000000  -0.000385  -0.000000   0.000000
   38  C  2 XY   -0.020761  -0.000000  -0.000000   0.021850   0.000000
   39  C  2 XZ    0.000000   0.015746  -0.000000  -0.000000  -0.012400
   40  C  2 YZ    0.000000  -0.000000  -0.000000  -0.000000   0.000000
   41  C  2  S    0.000000  -0.000000  -0.165231  -0.000000   0.000000
   42  C  2  X    0.000000  -0.000000  -0.018404  -0.000000   0.000000
   43  C  2  Y    0.056817  -0.000000  -0.000000   0.001755   0.000000
   44  C  2  Z    0.000000   0.004036  -0.000000  -0.000000  -0.035186
   45  C  2 XX    0.000000  -0.000000  -0.059693  -0.000000   0.000000
   46  C  2 YY    0.000000  -0.000000   0.065017  -0.000000   0.000000
   47  C  2 ZZ    0.000000  -0.000000  -0.005324  -0.000000   0.000000
   48  C  2 XY    0.027388  -0.000000  -0.000000  -0.032234   0.000000
   49  C  2 XZ    0.000000   0.000386  -0.000000  -0.000000  -0.003538
   50  C  2 YZ    0.000000  -0.000000  -0.000000  -0.000000   0.000000
   51  C  3  S    0.000297  -0.000000   0.000681   0.001179   0.000000
   52  C  3  S   -0.036754  -0.000000   0.005620   0.009735   0.000000
   53  C  3  S   -0.108989  -0.000000   0.036635   0.063447   0.000000
   54  C  3  X   -0.163878  -0.000000   0.247676  -0.014783   0.000000
   55  C  3  Y    0.196846  -0.000000   0.014776  -0.230607   0.000000
   56  C  3  Z    0.000000   0.215623  -0.000000  -0.000000  -0.160506
   57  C  3  X   -0.065748  -0.000000   0.131444  -0.042570   0.000000
   58  C  3  Y    0.039703  -0.000000   0.042565  -0.082294   0.000000
   59  C  3  Z    0.000000   0.125282  -0.000000  -0.000000  -0.119059
   60  C  3 XX   -0.011838  -0.000000   0.021455   0.004387   0.000000
   61  C  3 YY    0.011687  -0.000000  -0.021647  -0.004720   0.000000
   62  C  3 ZZ    0.000151  -0.000000   0.000193   0.000334   0.000000
   63  C  3 XY   -0.002764  -0.000000   0.005256   0.030955   0.000000
   64  C  3 XZ    0.000000   0.007872  -0.000000  -0.000000   0.020068
   65  C  3 YZ    0.000000  -0.013636  -0.000000  -0.000000   0.018745
   66  C  3  S   -0.105048  -0.000000   0.082616   0.143069   0.000000
   67  C  3  X    0.035729  -0.000000   0.005906   0.007220   0.000000
   68  C  3  Y   -0.005065  -0.000000  -0.007215  -0.014231   0.000000
   69  C  3  Z    0.000000   0.004034  -0.000000  -0.000000  -0.017592
   70  C  3 XX    0.031233  -0.000000  -0.037853  -0.017223   0.000000
   71  C  3 YY   -0.031417  -0.000000   0.035192   0.012612   0.000000
   72  C  3 ZZ    0.000185  -0.000000   0.002661   0.004612   0.000000
   73  C  3 XY    0.035265  -0.000000  -0.017221  -0.062063   0.000000
   74  C  3 XZ    0.000000   0.000194  -0.000000  -0.000000   0.001940
   75  C  3 YZ    0.000000  -0.000336  -0.000000  -0.000000   0.003163
   76  C  4  S    0.000297  -0.000000   0.000681  -0.001179   0.000000
   77  C  4  S   -0.036754  -0.000000   0.005620  -0.009735   0.000000
   78  C  4  S   -0.108989  -0.000000   0.036635  -0.063447   0.000000
   79  C  4  X    0.163878  -0.000000  -0.247676  -0.014783   0.000000
   80  C  4  Y    0.196846  -0.000000   0.014776   0.230607   0.000000
   81  C  4  Z    0.000000   0.215623  -0.000000  -0.000000   0.160506
   82  C  4  X    0.065748  -0.000000  -0.131444  -0.042570   0.000000
   83  C  4  Y    0.039703  -0.000000   0.042565   0.082294   0.000000
   84  C  4  Z    0.000000   0.125282  -0.000000  -0.000000   0.119059
   85  C  4 XX   -0.011838  -0.000000   0.021455  -0.004387   0.000000
   86  C  4 YY    0.011687  -0.000000  -0.021647   0.004720   0.000000
   87  C  4 ZZ    0.000151  -0.000000   0.000193  -0.000334   0.000000
   88  C  4 XY    0.002764  -0.000000  -0.005256   0.030955   0.000000
   89  C  4 XZ    0.000000  -0.007872  -0.000000  -0.000000   0.020068
   90  C  4 YZ    0.000000  -0.013636  -0.000000  -0.000000  -0.018745
   91  C  4  S   -0.105048  -0.000000   0.082616  -0.143069   0.000000
   92  C  4  X   -0.035729  -0.000000  -0.005906   0.007220   0.000000
   93  C  4  Y   -0.005065  -0.000000  -0.007215   0.014231   0.000000
   94  C  4  Z    0.000000   0.004034  -0.000000  -0.000000   0.017592
   95  C  4 XX    0.031233  -0.000000  -0.037853   0.017223   0.000000
   96  C  4 YY   -0.031417  -0.000000   0.035192  -0.012612   0.000000
   97  C  4 ZZ    0.000185  -0.000000   0.002661  -0.004612   0.000000
   98  C  4 XY   -0.035265  -0.000000   0.017221  -0.062063   0.000000
   99  C  4 XZ    0.000000  -0.000194  -0.000000  -0.000000   0.001940
  100  C  4 YZ    0.000000  -0.000336  -0.000000  -0.000000  -0.003163
  101  C  5  S   -0.000297  -0.000000   0.000681  -0.001179   0.000000
  102  C  5  S    0.036754  -0.000000   0.005620  -0.009735   0.000000
  103  C  5  S    0.108989  -0.000000   0.036635  -0.063447   0.000000
  104  C  5  X    0.163878  -0.000000   0.247676   0.014783   0.000000
  105  C  5  Y    0.196846  -0.000000  -0.014776  -0.230607   0.000000
  106  C  5  Z    0.000000   0.215623  -0.000000  -0.000000  -0.160506
  107  C  5  X    0.065748  -0.000000   0.131444   0.042570   0.000000
  108  C  5  Y    0.039703  -0.000000  -0.042565  -0.082294   0.000000
  109  C  5  Z    0.000000   0.125282  -0.000000  -0.000000  -0.119059
  110  C  5 XX    0.011838  -0.000000   0.021455  -0.004387   0.000000
  111  C  5 YY   -0.011687  -0.000000  -0.021647   0.004720   0.000000
  112  C  5 ZZ   -0.000151  -0.000000   0.000193  -0.000334   0.000000
  113  C  5 XY   -0.002764  -0.000000  -0.005256   0.030955   0.000000
  114  C  5 XZ    0.000000   0.007872  -0.000000  -0.000000   0.020068
  115  C  5 YZ    0.000000   0.013636  -0.000000  -0.000000  -0.018745
  116  C  5  S    0.105048  -0.000000   0.082616  -0.143069   0.000000
  117  C  5  X   -0.035729  -0.000000   0.005906  -0.007220   0.000000
  118  C  5  Y   -0.005065  -0.000000   0.007215  -0.014231   0.000000
  119  C  5  Z    0.000000   0.004034  -0.000000  -0.000000  -0.017592
  120  C  5 XX   -0.031233  -0.000000  -0.037853   0.017223   0.000000
  121  C  5 YY    0.031417  -0.000000   0.035192  -0.012612   0.000000
  122  C  5 ZZ   -0.000185  -0.000000   0.002661  -0.004612   0.000000
[...]
  170  H  9  S    0.000000
  171  H  9  X    0.000000
  172  H  9  Y    0.000000
  173  H  9  Z    0.007137
  174  H  9  S    0.000000
  175  H  9  X    0.000000
  176  H  9  Y    0.000000
  177  H  9  Z   -0.055358
  178  H 10  S    0.000000
  179  H 10  S    0.000000
  180  H 10  X    0.000000
  181  H 10  Y    0.000000
  182  H 10  Z    0.007137
  183  H 10  S    0.000000
  184  H 10  X    0.000000
  185  H 10  Y    0.000000
  186  H 10  Z   -0.055358
  187  H 11  S    0.000000
  188  H 11  S    0.000000
  189  H 11  X    0.000000
  190  H 11  Y    0.000000
  191  H 11  Z   -0.007137
  192  H 11  S    0.000000
  193  H 11  X    0.000000
  194  H 11  Y    0.000000
  195  H 11  Z    0.055358
  196  H 12  S    0.000000
  197  H 12  S    0.000000
  198  H 12  X    0.000000
  199  H 12  Y    0.000000
  200  H 12  Z   -0.007137
  201  H 12  S    0.000000
  202  H 12  X    0.000000
  203  H 12  Y    0.000000
  204  H 12  Z    0.055358

     -------------------------------------------------
     MP2 PROPERTIES...FOR THE FIRST ORDER WAVEFUNCTION
          USING THE RESPONSE (OR RELAXED) DENSITY
     -------------------------------------------------

          -----------------
          ENERGY COMPONENTS
          -----------------

         WAVEFUNCTION NORMALIZATION =       1.0000000000

                ONE ELECTRON ENERGY =    -709.1006457016
                TWO ELECTRON ENERGY =     275.9646649031
           NUCLEAR REPULSION ENERGY =     201.5957605622
                                      ------------------
                       TOTAL ENERGY =    -231.5402202364

 ELECTRON-ELECTRON POTENTIAL ENERGY =     275.9646649031
  NUCLEUS-ELECTRON POTENTIAL ENERGY =    -940.1051696971
   NUCLEUS-NUCLEUS POTENTIAL ENERGY =     201.5957605622
                                      ------------------
             TOTAL POTENTIAL ENERGY =    -462.5447442318
               TOTAL KINETIC ENERGY =     231.0045239954
                 VIRIAL RATIO (V/T) =       2.0023189859

          ---------------------------------------
          MULLIKEN AND LOWDIN POPULATION ANALYSES
          ---------------------------------------

               ----- POPULATIONS IN EACH AO -----
                             MULLIKEN      LOWDIN
              1  C  1  S      2.00852     1.81155
              2  C  1  S      0.67290     0.44201
              3  C  1  S      0.52931     0.17762
              4  C  1  X      0.72220     0.60250
              5  C  1  Y      0.74184     0.62287
              6  C  1  Z      0.55052     0.45320
              7  C  1  X      0.06570     0.27318
              8  C  1  Y      0.00026     0.24367
              9  C  1  Z      0.38517     0.26418
             10  C  1 XX      0.00787     0.15132
             11  C  1 YY      0.03383     0.15556
             12  C  1 ZZ      0.02519     0.06024
             13  C  1 XY      0.00846     0.05079
             14  C  1 XZ      0.01855     0.00929
             15  C  1 YZ      0.00000     0.02906
             16  C  1  S     -0.26389     0.04401
             17  C  1  X      0.03872     0.03561
             18  C  1  Y      0.14128     0.04374
             19  C  1  Z      0.01882     0.03306
             20  C  1 XX      0.00650     0.12315
             21  C  1 YY     -0.15055     0.15628
             22  C  1 ZZ     -0.02363     0.00903
             23  C  1 XY      0.00249     0.11615
             24  C  1 XZ      0.00597     0.02413
             25  C  1 YZ      0.00000     0.11661
             26  C  2  S      2.00852     1.81155
             27  C  2  S      0.67290     0.44201
             28  C  2  S      0.52931     0.17762
             29  C  2  X      0.72220     0.60250
             30  C  2  Y      0.74184     0.62287
             31  C  2  Z      0.55052     0.45320
             32  C  2  X      0.06570     0.27318
             33  C  2  Y      0.00026     0.24367
             34  C  2  Z      0.38517     0.26418
             35  C  2 XX      0.00787     0.15132
             36  C  2 YY      0.03383     0.15556
             37  C  2 ZZ      0.02519     0.06024
             38  C  2 XY      0.00846     0.05079
             39  C  2 XZ      0.01855     0.00929
             40  C  2 YZ      0.00000     0.02906
             41  C  2  S     -0.26389     0.04401
             42  C  2  X      0.03872     0.03561
             43  C  2  Y      0.14128     0.04374
             44  C  2  Z      0.01882     0.03306
             45  C  2 XX      0.00650     0.12315
             46  C  2 YY     -0.15055     0.15628
             47  C  2 ZZ     -0.02363     0.00903
             48  C  2 XY      0.00249     0.11615
             49  C  2 XZ      0.00597     0.02413
             50  C  2 YZ      0.00000     0.11661
             51  C  3  S      2.00852     1.81347
             52  C  3  S      0.67290     0.44526
             53  C  3  S      0.52933     0.18024
             54  C  3  X      0.73693     0.62245
             55  C  3  Y      0.72711     0.60358
             56  C  3  Z      0.55052     0.45320
             57  C  3  X      0.01666     0.24858
             58  C  3  Y      0.04933     0.26298
             59  C  3  Z      0.38517     0.26418
             60  C  3 XX      0.00787     0.15023
             61  C  3 YY      0.02735     0.14739
             62  C  3 ZZ      0.03167     0.06182
             63  C  3 XY      0.01602     0.06647
             64  C  3 XZ      0.01098     0.02412
             65  C  3 YZ      0.00000     0.01423
             66  C  3  S     -0.26390     0.04404
             67  C  3  X      0.11562     0.04169
             68  C  3  Y      0.06436     0.03772
             69  C  3  Z      0.01882     0.03306
             70  C  3 XX      0.00650     0.12359
             71  C  3 YY     -0.05536     0.10414
             72  C  3 ZZ     -0.11882     0.00913
             73  C  3 XY      0.00510     0.18450
             74  C  3 XZ      0.00336     0.09349
             75  C  3 YZ      0.00000     0.04725
             76  C  4  S      2.00852     1.81347
             77  C  4  S      0.67290     0.44526
             78  C  4  S      0.52933     0.18024
             79  C  4  X      0.73693     0.62245
             80  C  4  Y      0.72711     0.60358
             81  C  4  Z      0.55052     0.45320
             82  C  4  X      0.01666     0.24858
             83  C  4  Y      0.04933     0.26298
             84  C  4  Z      0.38517     0.26418
             85  C  4 XX      0.00787     0.15023
             86  C  4 YY      0.02735     0.14739
             87  C  4 ZZ      0.03167     0.06182
             88  C  4 XY      0.01602     0.06647
             89  C  4 XZ      0.01098     0.02412
             90  C  4 YZ      0.00000     0.01423
             91  C  4  S     -0.26390     0.04404
             92  C  4  X      0.11562     0.04169
             93  C  4  Y      0.06436     0.03772
             94  C  4  Z      0.01882     0.03306
             95  C  4 XX      0.00650     0.12359
             96  C  4 YY     -0.05536     0.10414
             97  C  4 ZZ     -0.11882     0.00913
             98  C  4 XY      0.00510     0.18450
             99  C  4 XZ      0.00336     0.09349
            100  C  4 YZ      0.00000     0.04725
            101  C  5  S      2.00852     1.81347
            102  C  5  S      0.67290     0.44526
            103  C  5  S      0.52933     0.18024
            104  C  5  X      0.73693     0.62245
            105  C  5  Y      0.72711     0.60358
            106  C  5  Z      0.55052     0.45320
            107  C  5  X      0.01666     0.24858
            108  C  5  Y      0.04933     0.26298
            109  C  5  Z      0.38517     0.26418
            110  C  5 XX      0.00787     0.15023
            111  C  5 YY      0.02735     0.14739
            112  C  5 ZZ      0.03167     0.06182
            113  C  5 XY      0.01602     0.06647
            114  C  5 XZ      0.01098     0.02412
            115  C  5 YZ      0.00000     0.01423
            116  C  5  S     -0.26390     0.04404
            117  C  5  X      0.11562     0.04169
            118  C  5  Y      0.06436     0.03772
            119  C  5  Z      0.01882     0.03306
            120  C  5 XX      0.00650     0.12359
            121  C  5 YY     -0.05536     0.10414
            122  C  5 ZZ     -0.11882     0.00913
            123  C  5 XY      0.00510     0.18450
            124  C  5 XZ      0.00336     0.09349
            125  C  5 YZ      0.00000     0.04725
            126  C  6  S      2.00852     1.81347
            127  C  6  S      0.67290     0.44526
            128  C  6  S      0.52933     0.18024
            129  C  6  X      0.73693     0.62245
            130  C  6  Y      0.72711     0.60358
            131  C  6  Z      0.55052     0.45320
            132  C  6  X      0.01666     0.24858
            133  C  6  Y      0.04933     0.26298
            134  C  6  Z      0.38517     0.26418
            135  C  6 XX      0.00787     0.15023
            136  C  6 YY      0.02735     0.14739
            137  C  6 ZZ      0.03167     0.06182
            138  C  6 XY      0.01602     0.06647
            139  C  6 XZ      0.01098     0.02412
            140  C  6 YZ      0.00000     0.01423
            141  C  6  S     -0.26390     0.04404
            142  C  6  X      0.11562     0.04169
            143  C  6  Y      0.06436     0.03772
            144  C  6  Z      0.01882     0.03306
            145  C  6 XX      0.00650     0.12359
            146  C  6 YY     -0.05536     0.10414
            147  C  6 ZZ     -0.11882     0.00913
            148  C  6 XY      0.00510     0.18450
            149  C  6 XZ      0.00336     0.09349
            150  C  6 YZ      0.00000     0.04725
            151  H  7  S      0.75676     0.51709
            152  H  7  S      0.69063     0.16291
            153  H  7  X      0.01788     0.03891
            154  H  7  Y      0.00497     0.01317
            155  H  7  Z      0.00693     0.01426
            156  H  7  S     -0.00203     0.01944
            157  H  7  X     -0.00579     0.06999
            158  H  7  Y     -0.02301     0.04169
            159  H  7  Z      0.00761     0.06072
            160  H  8  S      0.75676     0.51709
            161  H  8  S      0.69063     0.16291
            162  H  8  X      0.01788     0.03891
            163  H  8  Y      0.00497     0.01317
            164  H  8  Z      0.00693     0.01426
            165  H  8  S     -0.00203     0.01944
            166  H  8  X     -0.00579     0.06999
            167  H  8  Y     -0.02301     0.04169
            168  H  8  Z      0.00761     0.06072
            169  H  9  S      0.75676     0.51057
            170  H  9  S      0.69063     0.16325
            171  H  9  X      0.00820     0.01935
            172  H  9  Y      0.01466     0.03256
            173  H  9  Z      0.00693     0.01426
            174  H  9  S     -0.00203     0.01945
            175  H  9  X     -0.01871     0.04668
            176  H  9  Y     -0.01009     0.06283
            177  H  9  Z      0.00761     0.06072
            178  H 10  S      0.75676     0.51057
            179  H 10  S      0.69063     0.16325
            180  H 10  X      0.00820     0.01935
            181  H 10  Y      0.01466     0.03256
            182  H 10  Z      0.00693     0.01426
            183  H 10  S     -0.00203     0.01945
            184  H 10  X     -0.01871     0.04668
            185  H 10  Y     -0.01009     0.06283
            186  H 10  Z      0.00761     0.06072
            187  H 11  S      0.75676     0.51057
            188  H 11  S      0.69063     0.16325
            189  H 11  X      0.00820     0.01935
            190  H 11  Y      0.01466     0.03256
            191  H 11  Z      0.00693     0.01426
            192  H 11  S     -0.00203     0.01945
            193  H 11  X     -0.01871     0.04668
            194  H 11  Y     -0.01009     0.06283
            195  H 11  Z      0.00761     0.06072
            196  H 12  S      0.75676     0.51057
            197  H 12  S      0.69063     0.16325
            198  H 12  X      0.00820     0.01935
            199  H 12  Y      0.01466     0.03256
            200  H 12  Z      0.00693     0.01426
            201  H 12  S     -0.00203     0.01945
            202  H 12  X     -0.01871     0.04668
            203  H 12  Y     -0.01009     0.06283
            204  H 12  Z      0.00761     0.06072

          ----- MULLIKEN ATOMIC OVERLAP POPULATIONS -----
          (OFF-DIAGONAL ELEMENTS NEED TO BE MULTIPLIED BY 2)

             1           2           3           4           5

    1   13.0129720
    2   -3.4104127  13.0129720
    3    2.0474507  -3.9639018  13.0128945
    4   -3.9639018   2.0474507  -3.9638325  13.0128945
    5    2.0474507  -3.9639018   2.0474201  -3.4103572  13.0128945
    6   -3.9639018   2.0474507  -3.4103572   2.0474201  -3.9638325
    7   -0.6058579   0.1229404  -0.1832170   0.3128624  -0.1832170
    8    0.1229404  -0.6058579   0.3128624  -0.1832170   0.3128624
    9    0.3128666  -0.1832252   0.3128752  -0.6058599   0.1229422
   10   -0.1832252   0.3128666  -0.6058599   0.3128752  -0.1832184
   11    0.3128666  -0.1832252   0.1229422  -0.1832184   0.3128752
   12   -0.1832252   0.3128666  -0.1832184   0.1229422  -0.6058599

             6           7           8           9          10

    6   13.0128945
    7    0.3128624   1.8672441
    8   -0.1832170   0.0104720   1.8672441
    9   -0.1832184  -0.0840233  -0.0160462   1.8672467
   10    0.1229422  -0.0160462  -0.0840233  -0.0840278   1.8672467
   11   -0.6058599  -0.0840233  -0.0160462  -0.0160466   0.0104722
   12    0.3128752  -0.0160462  -0.0840233   0.0104722  -0.0160466

            11          12

   11    1.8672467
   12   -0.0840278   1.8672467

          TOTAL MULLIKEN AND LOWDIN ATOMIC POPULATIONS
       ATOM         MULL.POP.    CHARGE          LOW.POP.     CHARGE
    1 C             5.546022    0.453978         6.048808   -0.048808
    2 C             5.546022    0.453978         6.048808   -0.048808
    3 C             5.546058    0.453942         6.076826   -0.076826
    4 C             5.546058    0.453942         6.076826   -0.076826
    5 C             5.546058    0.453942         6.076826   -0.076826
    6 C             5.546058    0.453942         6.076826   -0.076826
    7 H             1.453950   -0.453950         0.938194    0.061806
    8 H             1.453950   -0.453950         0.938194    0.061806
    9 H             1.453955   -0.453955         0.929673    0.070327
   10 H             1.453955   -0.453955         0.929673    0.070327
   11 H             1.453955   -0.453955         0.929673    0.070327
   12 H             1.453955   -0.453955         0.929673    0.070327

          MULLIKEN SPHERICAL HARMONIC POPULATIONS
       ATOM           S       P       D      F      G      H      I    TOTAL
    1 C             2.95    2.66   -0.07   0.00   0.00   0.00   0.00    5.55
    2 C             2.95    2.66   -0.07   0.00   0.00   0.00   0.00    5.55
    3 C             2.95    2.66   -0.07   0.00   0.00   0.00   0.00    5.55
    4 C             2.95    2.66   -0.07   0.00   0.00   0.00   0.00    5.55
    5 C             2.95    2.66   -0.07   0.00   0.00   0.00   0.00    5.55
    6 C             2.95    2.66   -0.07   0.00   0.00   0.00   0.00    5.55
    7 H             1.45    0.01    0.00   0.00   0.00   0.00   0.00    1.45
    8 H             1.45    0.01    0.00   0.00   0.00   0.00   0.00    1.45
    9 H             1.45    0.01    0.00   0.00   0.00   0.00   0.00    1.45
   10 H             1.45    0.01    0.00   0.00   0.00   0.00   0.00    1.45
   11 H             1.45    0.01    0.00   0.00   0.00   0.00   0.00    1.45
   12 H             1.45    0.01    0.00   0.00   0.00   0.00   0.00    1.45

          -------------------------------
          BOND ORDER AND VALENCE ANALYSIS     BOND ORDER THRESHOLD=0.050
          -------------------------------

                   BOND                       BOND                       BOND
  ATOM PAIR DIST  ORDER      ATOM PAIR DIST  ORDER      ATOM PAIR DIST  ORDER
    1   2  2.816  0.179        1   3  2.439 -0.102        1   4  1.408  1.642
    1   5  2.439 -0.102        1   6  1.408  1.642        1   7  1.094  0.384
    1   9  2.173  0.162        1  11  2.173  0.162        2   3  1.408  1.642
    2   4  2.439 -0.102        2   5  1.408  1.642        2   6  2.439 -0.102
    2   8  1.094  0.384        2  10  2.173  0.162        2  12  2.173  0.162
    3   4  1.408  1.642        3   5  2.439 -0.102        3   6  2.816  0.179
    3   8  2.173  0.162        3   9  2.173  0.162        3  10  1.094  0.384
    4   5  2.816  0.179        4   6  2.439 -0.102        4   7  2.173  0.162
    4   9  1.094  0.384        4  10  2.173  0.162        5   6  1.408  1.642
    5   8  2.173  0.162        5  11  2.173  0.162        5  12  1.094  0.384
    6   7  2.173  0.162        6  11  1.094  0.384        6  12  2.173  0.162

                       TOTAL       BONDED        FREE
      ATOM            VALENCE     VALENCE     VALENCE
    1 C                 4.260       3.910       0.350
    2 C                 4.260       3.910       0.350
    3 C                 4.260       3.910       0.350
    4 C                 4.260       3.910       0.350
    5 C                 4.260       3.910       0.350
    6 C                 4.260       3.910       0.350
    7 H                 0.712       0.652       0.060
    8 H                 0.712       0.652       0.060
    9 H                 0.712       0.652       0.060
   10 H                 0.712       0.652       0.060
   11 H                 0.712       0.652       0.060
   12 H                 0.712       0.652       0.060

          ---------------------
          ELECTROSTATIC MOMENTS
          ---------------------

 POINT   1           X           Y           Z (BOHR)    CHARGE
                 0.000000   -0.000000    0.000000        0.00 (A.U.)
         DX          DY          DZ         /D/  (DEBYE)
    -0.000000    0.000000    0.000000    0.000000
 ...... END OF PROPERTY EVALUATION ......
 STEP CPU TIME =     0.13 TOTAL CPU TIME =       1778.6 (     29.6 MIN)
 TOTAL WALL CLOCK TIME=       1779.1 SECONDS, CPU UTILIZATION IS    99.97%
  $VIB   
          IVIB=   0 IATOM=   0 ICOORD=   0 E=     -231.5402202364
 -5.927727508E-05 9.368438967E-08 0.000000000E+00 5.950098587E-05-2.891840157E-08
  0.000000000E+00 2.449949433E-05-4.776391855E-05 0.000000000E+00-2.465370768E-05
 -4.786890192E-05 0.000000000E+00 2.450475800E-05 4.776539140E-05 0.000000000E+00
 -2.481549832E-05 4.786012901E-05 0.000000000E+00 3.314957699E-05-2.039470077E-08
  0.000000000E+00-3.320651038E-05-2.897563955E-08 0.000000000E+00 1.537463448E-05
  2.888290427E-05 0.000000000E+00-1.531514069E-05 2.868559059E-05 0.000000000E+00
  1.540477109E-05-2.878978228E-05 0.000000000E+00-1.516608960E-05-2.878680648E-05
  0.000000000E+00
 -6.953228464E-13 1.806033367E-14 1.805808250E-31
 ......END OF GEOMETRY SEARCH......
 STEP CPU TIME =     0.00 TOTAL CPU TIME =       1778.6 (     29.6 MIN)
 TOTAL WALL CLOCK TIME=       1779.1 SECONDS, CPU UTILIZATION IS    99.97%
              6346055  WORDS OF DYNAMIC MEMORY USED
 EXECUTION OF GAMESS TERMINATED NORMALLY Thu Jun 24 10:36:36 2021
 DDI: 263640 bytes (0.3 MB / 0 MWords) used by master data server.

 ----------------------------------------
 CPU timing information for all processes
 ========================================
 0: 1692.103 + 86.512 = 1778.615
 ----------------------------------------
 ddikick.x: exited gracefully.
unset echo
----- accounting info -----
Files used on the master node compute-0-12 were:
-rw-r--r-- 1 agf18 gfam     453 Jun 24 10:06 /var/tmp/pbs.36010.masternode2/benzene.F05
-rw-r--r-- 1 agf18 gfam 5562400 Jun 24 10:36 /var/tmp/pbs.36010.masternode2/benzene.F10
ls: No match.
ls: No match.
ls: No match.
Thu Jun 24 10:36:39 -03 2021
0.119u 0.064s 29:42.93 0.0%	0+0k 888+200io 6pf+0w
