
     Program PWSCF v.6.2 (svn rev. 14038) starts on 22Jun2021 at 10:50:59 

     This program is part of the open-source Quantum ESPRESSO suite
     for quantum simulation of materials; please cite
         "P. Giannozzi et al., J. Phys.:Condens. Matter 21 395502 (2009);
         "P. Giannozzi et al., J. Phys.:Condens. Matter 29 465901 (2017);
          URL http://www.quantum-espresso.org", 
     in publications or presentations arising from this work. More details at
     http://www.quantum-espresso.org/quote

     Parallel version (MPI), running on     1 processors

     MPI processes distributed on     1 nodes
     Waiting for input...
     Reading input from standard input

     Current dimensions of program PWSCF are:
     Max number of different atomic species (ntypx) = 10
     Max number of k-points (npk) =  40000
     Max angular momentum in pseudopotentials (lmaxx) =  3
               file Ir.pbe-n-rrkjus_psl.0.2.3.UPF: wavefunction(s)  5D renormalized

     gamma-point specific algorithms are used

     Subspace diagonalization in iterative solution of the eigenvalue problem:
     a serial algorithm will be used

 
     G-vector sticks info
     --------------------
     sticks:   dense  smooth     PW     G-vecs:    dense   smooth      PW
     Sum        9233    3705    933               664941   168285   21079
 


     bravais-lattice index     =            0
     lattice parameter (alat)  =      19.6435  a.u.
     unit-cell volume          =    7579.8182 (a.u.)^3
     number of atoms/cell      =           61
     number of atomic types    =            4
     number of electrons       =       180.00
     number of Kohn-Sham states=          108
     kinetic-energy cutoff     =      30.0000  Ry
     charge density cutoff     =     300.0000  Ry
     convergence threshold     =      1.0E-04
     mixing beta               =       0.3000
     number of iterations used =            8  plain     mixing
     Exchange-correlation      = PBE ( 1  4  3  4 0 0)
     nstep                     =          100


     celldm(1)=  19.643533  celldm(2)=   0.000000  celldm(3)=   0.000000
     celldm(4)=   0.000000  celldm(5)=   0.000000  celldm(6)=   0.000000

     crystal axes: (cart. coord. in units of alat)
               a(1) = (   1.000000   0.000000   0.000000 )  
               a(2) = (   0.000000   1.000000   0.000000 )  
               a(3) = (   0.000000   0.000000   1.000000 )  

     reciprocal axes: (cart. coord. in units 2 pi/alat)
               b(1) = (  1.000000  0.000000  0.000000 )  
               b(2) = (  0.000000  1.000000  0.000000 )  
               b(3) = (  0.000000  0.000000  1.000000 )  


     PseudoPot. # 1 for C  read from file:
     /util/academic/espresso/6.2.1/pseudopotentials/upf_files/C.pbe-n-rrkjus_psl.0.1.UPF
     MD5 check sum: ab446d787031eba755f1d5ee46644bb0
     Pseudo is Ultrasoft + core correction, Zval =  4.0
     Generated using "atomic" code by A. Dal Corso v.5.0.2 svn rev. 9415
     Using radial grid of 1073 points,  4 beta functions with: 
                l(1) =   0
                l(2) =   0
                l(3) =   1
                l(4) =   1
     Q(r) pseudized with 0 coefficients 


     PseudoPot. # 2 for H  read from file:
     /util/academic/espresso/6.2.1/pseudopotentials/upf_files/H.pbe-rrkjus_psl.0.1.UPF
     MD5 check sum: bd57da0722753ddfd9833a65b40bb853
     Pseudo is Ultrasoft, Zval =  1.0
     Generated using "atomic" code by A. Dal Corso v.5.0.2 svn rev. 9415
     Using radial grid of  929 points,  2 beta functions with: 
                l(1) =   0
                l(2) =   0
     Q(r) pseudized with 0 coefficients 


     PseudoPot. # 3 for Ir read from file:
     /util/academic/espresso/6.2.1/pseudopotentials/upf_files/Ir.pbe-n-rrkjus_psl.0.2.3.UPF
     MD5 check sum: 0d5bc36db6a0bde07ee800c0d8fcbb77
     Pseudo is Ultrasoft + core correction, Zval =  9.0
     Generated using "atomic" code by A. Dal Corso v.5.0.2 svn rev. 9415
     Using radial grid of 1277 points,  6 beta functions with: 
                l(1) =   0
                l(2) =   0
                l(3) =   1
                l(4) =   1
                l(5) =   2
                l(6) =   2
     Q(r) pseudized with 0 coefficients 


     PseudoPot. # 4 for N  read from file:
     /util/academic/espresso/6.2.1/pseudopotentials/upf_files/N.pbe-n-rrkjus_psl.0.1.UPF
     MD5 check sum: ed8b6a90f28a53b7d71920e7015d2dd6
     Pseudo is Ultrasoft + core correction, Zval =  5.0
     Generated using "atomic" code by A. Dal Corso v.5.0.2 svn rev. 9415
     Using radial grid of 1085 points,  4 beta functions with: 
                l(1) =   0
                l(2) =   0
                l(3) =   1
                l(4) =   1
     Q(r) pseudized with 0 coefficients 


     atomic species   valence    mass     pseudopotential
        C              4.00    12.01000     C ( 1.00)
        H              1.00     1.00700     H ( 1.00)
        Ir             9.00   192.21700     Ir( 1.00)
        N              5.00    14.00600     N ( 1.00)

     No symmetry found



   Cartesian axes

     site n.     atom                  positions (alat units)
         1           Ir  tau(   1) = (   0.0000000   0.0000000  -0.0003973  )
         2           N   tau(   2) = (   0.0838959  -0.1564699  -0.1049783  )
         3           N   tau(   3) = (  -0.1774542   0.0055787  -0.1049783  )
         4           C   tau(   4) = (  -0.0573165   0.1555232   0.0998364  )
         5           C   tau(   5) = (   0.1633453  -0.0281243   0.0998364  )
         6           C   tau(   6) = (   0.1979863  -0.1977958  -0.0579505  )
         7           C   tau(   7) = (   0.2443302  -0.1276134   0.0540274  )
         8           N   tau(   8) = (   0.0935583   0.1508912  -0.1049783  )
         9           C   tau(   9) = (  -0.1060288  -0.1273989   0.0998364  )
        10           C   tau(  10) = (   0.0723027   0.2703592  -0.0579505  )
        11           C   tau(  11) = (  -0.0116490   0.2754031   0.0540274  )
        12           C   tau(  12) = (  -0.2702890  -0.0725634  -0.0579505  )
        13           C   tau(  13) = (  -0.2326822  -0.1477896   0.0540274  )
        14           C   tau(  14) = (   0.2065049   0.0389662   0.2084020  )
        15           C   tau(  15) = (   0.3219431   0.0094633   0.2680649  )
        16           C   tau(  16) = (   0.4000179  -0.0888089   0.2213728  )
        17           C   tau(  17) = (   0.3608333  -0.1570115   0.1144637  )
        18           C   tau(  18) = (   0.2610114  -0.3008905  -0.1167668  )
        19           C   tau(  19) = (   0.2071879  -0.3606525  -0.2221818  )
        20           C   tau(  20) = (   0.0896920  -0.3171937  -0.2686353  )
        21           C   tau(  21) = (   0.0318627  -0.2152140  -0.2065578  )
        22           C   tau(  22) = (   0.1704488   0.1352008  -0.2065578  )
        23           C   tau(  23) = (   0.2298519   0.2362724  -0.2686353  )
        24           C   tau(  24) = (   0.2087397   0.3597568  -0.2221818  )
        25           C   tau(  25) = (   0.1300733   0.3764881  -0.1167668  )
        26           C   tau(  26) = (  -0.0444410   0.3909971   0.1144637  )
        27           C   tau(  27) = (  -0.1230977   0.3908307   0.2213728  )
        28           C   tau(  28) = (  -0.1691674   0.2740793   0.2680649  )
        29           C   tau(  29) = (  -0.1369988   0.1593559   0.2084020  )
        30           C   tau(  30) = (  -0.3163933  -0.2339847   0.1144637  )
        31           C   tau(  31) = (  -0.2769202  -0.3020219   0.2213728  )
        32           C   tau(  32) = (  -0.1527757  -0.2835426   0.2680649  )
        33           C   tau(  33) = (  -0.0695071  -0.1983221   0.2084020  )
        34           C   tau(  34) = (  -0.2023115   0.0800132  -0.2065578  )
        35           C   tau(  35) = (  -0.3910847  -0.0755976  -0.1167668  )
        36           C   tau(  36) = (  -0.4159286   0.0008956  -0.2221818  )
        37           C   tau(  37) = (  -0.3195439   0.0809213  -0.2686353  )
        38           H   tau(  38) = (   0.1476569   0.1156884   0.2474605  )
        39           H   tau(  39) = (   0.3517597   0.0635696   0.3522695  )
        40           H   tau(  40) = (   0.4902573  -0.1117095   0.2682986  )
        41           H   tau(  41) = (   0.4216054  -0.2337057   0.0782027  )
        42           H   tau(  42) = (   0.3520223  -0.3339731  -0.0786924  )
        43           H   tau(  43) = (   0.2559407  -0.4408331  -0.2676743  )
        44           H   tau(  44) = (   0.0432067  -0.3614923  -0.3505764  )
        45           H   tau(  45) = (  -0.0602324  -0.1780670  -0.2382531  )
        46           H   tau(  46) = (   0.1843268   0.0368709  -0.2382531  )
        47           H   tau(  47) = (   0.2914580   0.2181645  -0.3505764  )
        48           H   tau(  48) = (   0.2538031   0.4420673  -0.2676743  )
        49           H   tau(  49) = (   0.1132179   0.4718473  -0.0786924  )
        50           H   tau(  50) = (  -0.0084070   0.4819744   0.0782027  )
        51           H   tau(  51) = (  -0.1483851   0.4804294   0.2682986  )
        52           H   tau(  52) = (  -0.2309323   0.2728480   0.3522695  )
        53           H   tau(  53) = (  -0.1740169   0.0700304   0.2474605  )
        54           H   tau(  54) = (  -0.4131984  -0.2482677   0.0782027  )
        55           H   tau(  55) = (  -0.3418712  -0.3687199   0.2682986  )
        56           H   tau(  56) = (  -0.1208274  -0.3364175   0.3522695  )
        57           H   tau(  57) = (   0.0263610  -0.1857188   0.2474605  )
        58           H   tau(  58) = (  -0.1240944   0.1411960  -0.2382531  )
        59           H   tau(  59) = (  -0.4652402  -0.1378742  -0.0786924  )
        60           H   tau(  60) = (  -0.5097428  -0.0012343  -0.2676743  )
        61           H   tau(  61) = (  -0.3346648   0.1433278  -0.3505764  )

     number of k points=     1  gaussian smearing, width (Ry)=  0.0100
                       cart. coord. in units 2pi/alat
        k(    1) = (   0.0000000   0.0000000   0.0000000), wk =   2.0000000

     Dense  grid:   332471 G-vectors     FFT dimensions: ( 120, 120, 120)

     Smooth grid:    84143 G-vectors     FFT dimensions: (  72,  72,  72)

     Estimated max dynamical RAM per process >       2.19 GB

     Check: negative/imaginary core charge=   -0.000003    0.000000

     Initial potential from superposition of free atoms

     starting charge  179.99823, renormalised to  180.00000
     Starting wfc are  177 randomized atomic wfcs

     total cpu time spent up to now is        8.4 secs

     Self-consistent Calculation

     iteration #  1     ecut=    30.00 Ry     beta= 0.30
     Davidson diagonalization with overlap
     ethr =  1.00E-02,  avg # of iterations =  3.0

     total cpu time spent up to now is       18.4 secs

     total energy              =    -544.83098786 Ry
     Harris-Foulkes estimate   =    -547.53502052 Ry
     estimated scf accuracy    <       7.41429196 Ry

     iteration #  2     ecut=    30.00 Ry     beta= 0.30
     Davidson diagonalization with overlap
     ethr =  4.12E-03,  avg # of iterations =  1.0

     negative rho (up, down):  3.097E-04 0.000E+00

     total cpu time spent up to now is       25.5 secs

     total energy              =    -543.94640885 Ry
     Harris-Foulkes estimate   =    -545.18540523 Ry
     estimated scf accuracy    <       2.47182883 Ry

     iteration #  3     ecut=    30.00 Ry     beta= 0.30
     Davidson diagonalization with overlap
     ethr =  1.37E-03,  avg # of iterations =  7.0

     negative rho (up, down):  9.071E-05 0.000E+00

     total cpu time spent up to now is       34.6 secs

     total energy              =    -544.68799973 Ry
     Harris-Foulkes estimate   =    -544.90758863 Ry
     estimated scf accuracy    <       0.86574033 Ry

     iteration #  4     ecut=    30.00 Ry     beta= 0.30
     Davidson diagonalization with overlap
     ethr =  4.81E-04,  avg # of iterations =  2.0

     negative rho (up, down):  1.622E-05 0.000E+00

     total cpu time spent up to now is       41.5 secs

     total energy              =    -544.68538302 Ry
     Harris-Foulkes estimate   =    -544.77834774 Ry
     estimated scf accuracy    <       0.24264771 Ry

     iteration #  5     ecut=    30.00 Ry     beta= 0.30
     Davidson diagonalization with overlap
     ethr =  1.35E-04,  avg # of iterations =  5.0

     negative rho (up, down):  3.241E-04 0.000E+00

     total cpu time spent up to now is       50.0 secs

     total energy              =    -544.72016479 Ry
     Harris-Foulkes estimate   =    -544.74003411 Ry
     estimated scf accuracy    <       0.05981727 Ry

     iteration #  6     ecut=    30.00 Ry     beta= 0.30
     Davidson diagonalization with overlap
     ethr =  3.32E-05,  avg # of iterations =  7.0

     negative rho (up, down):  2.083E-04 0.000E+00

     total cpu time spent up to now is       58.7 secs

     total energy              =    -544.72737733 Ry
     Harris-Foulkes estimate   =    -544.72943049 Ry
     estimated scf accuracy    <       0.00538982 Ry

     iteration #  7     ecut=    30.00 Ry     beta= 0.30
     Davidson diagonalization with overlap
     ethr =  2.99E-06,  avg # of iterations =  7.0

     negative rho (up, down):  1.502E-04 0.000E+00

     total cpu time spent up to now is       68.0 secs

     total energy              =    -544.72853971 Ry
     Harris-Foulkes estimate   =    -544.72946403 Ry
     estimated scf accuracy    <       0.00254754 Ry

     iteration #  8     ecut=    30.00 Ry     beta= 0.30
     Davidson diagonalization with overlap
     ethr =  1.42E-06,  avg # of iterations =  4.0

     negative rho (up, down):  8.679E-05 0.000E+00

     total cpu time spent up to now is       75.7 secs

     total energy              =    -544.72902769 Ry
     Harris-Foulkes estimate   =    -544.72915173 Ry
     estimated scf accuracy    <       0.00039536 Ry

     iteration #  9     ecut=    30.00 Ry     beta= 0.30
     Davidson diagonalization with overlap
     ethr =  2.20E-07,  avg # of iterations =  4.0

     negative rho (up, down):  6.291E-06 0.000E+00

     total cpu time spent up to now is       83.7 secs

     End of self-consistent calculation

          k = 0.0000 0.0000 0.0000 ( 10540 PWs)   bands (ev):

   -20.8240 -20.7088 -20.6564 -17.4611 -17.3877 -17.2960 -17.0118 -16.6837
   -16.6639 -16.0820 -15.9922 -15.9691 -14.5483 -14.4024 -14.3629 -14.2954
   -14.2569 -14.1826 -12.8018 -12.6040 -12.5321 -12.5104 -12.2363 -12.1148
   -11.0484 -10.8257 -10.7469 -10.6312 -10.6048 -10.5025  -9.9570  -9.5723
    -9.4451  -8.7795  -8.7478  -8.6491  -8.6007  -8.5000  -8.4190  -8.3669
    -8.0070  -7.8528  -7.7499  -7.2743  -7.1715  -7.1189  -6.9973  -6.9326
    -6.9173  -6.8615  -6.8288  -6.7328  -6.6767  -6.6041  -6.3972  -6.2876
    -6.1985  -5.8905  -5.7532  -5.6210  -5.4635  -5.4037  -5.3292  -5.2899
    -5.1760  -5.0909  -4.7368  -4.7013  -4.6317  -4.3213  -4.3109  -4.2176
    -4.1149  -4.0592  -3.9965  -3.7835  -3.5929  -3.5499  -2.8950  -2.8385
    -2.6603  -2.6403  -2.5358  -2.3706  -2.1896  -2.0556  -1.9874  -1.1179
    -1.0533  -0.8954   1.2444   1.3829   1.4231   1.4759   1.7787   1.8768
     2.3051   2.8595   3.0980   3.1850   3.2972   3.2994   3.4689   3.5444
     3.6018   3.6756   3.7243   4.0092

     the Fermi energy is     0.3161 ev

!    total energy              =    -544.72916672 Ry
     Harris-Foulkes estimate   =    -544.72914027 Ry
     estimated scf accuracy    <       0.00003305 Ry

     convergence has been achieved in   9 iterations

     negative rho (up, down):  6.291E-06 0.000E+00

     Forces acting on atoms (cartesian axes, Ry/au):

     atom    1 type  3   force =     0.00041078   -0.00202513   -0.00661728
     atom    2 type  4   force =    -0.01061261    0.01728542    0.00711045
     atom    3 type  4   force =     0.01831641    0.00055496    0.00784828
     atom    4 type  1   force =    -0.00108795   -0.00276204    0.00270145
     atom    5 type  1   force =    -0.00250212    0.00288614    0.00129822
     atom    6 type  1   force =     0.01858540   -0.00189762    0.01381943
     atom    7 type  1   force =    -0.00223364   -0.00806157   -0.01067271
     atom    8 type  4   force =    -0.00877752   -0.01553344    0.00692144
     atom    9 type  1   force =     0.00103683    0.00157185    0.00214124
     atom   10 type  1   force =    -0.00826204    0.01487829    0.01247665
     atom   11 type  1   force =     0.00793983    0.00330260   -0.00977650
     atom   12 type  1   force =    -0.01146851   -0.01341437    0.00964653
     atom   13 type  1   force =    -0.00618851    0.00459884   -0.00874299
     atom   14 type  1   force =    -0.00110294    0.00184665    0.00083652
     atom   15 type  1   force =    -0.00071490   -0.00015100   -0.00029195
     atom   16 type  1   force =     0.00261251   -0.00128300    0.00367992
     atom   17 type  1   force =    -0.00638907    0.00255174    0.00296834
     atom   18 type  1   force =    -0.00097652    0.00248814   -0.00017071
     atom   19 type  1   force =     0.00422020    0.03349863   -0.00620490
     atom   20 type  1   force =     0.00174421   -0.00070245   -0.00104872
     atom   21 type  1   force =    -0.00863138   -0.00534454   -0.01134616
     atom   22 type  1   force =     0.00870834   -0.00525215   -0.01194803
     atom   23 type  1   force =    -0.00073125   -0.00217967    0.00152484
     atom   24 type  1   force =     0.00198543   -0.03000753   -0.00205757
     atom   25 type  1   force =     0.00093057   -0.00051068    0.00040122
     atom   26 type  1   force =     0.00034105    0.00097198    0.00006646
     atom   27 type  1   force =    -0.00056932   -0.00160572    0.00463734
     atom   28 type  1   force =     0.00082254   -0.00022429   -0.00055155
     atom   29 type  1   force =    -0.00050510   -0.00345772   -0.00044079
     atom   30 type  1   force =     0.00479298   -0.00211966   -0.00137365
     atom   31 type  1   force =    -0.00090851    0.00132612    0.00251093
     atom   32 type  1   force =    -0.00138869    0.00467682    0.00152169
     atom   33 type  1   force =     0.00261320   -0.00027538    0.00049254
     atom   34 type  1   force =     0.00095252    0.00951776   -0.01134142
     atom   35 type  1   force =     0.00196371   -0.00219089    0.00031881
     atom   36 type  1   force =    -0.00294613    0.00080410   -0.00272906
     atom   37 type  1   force =    -0.00160161   -0.00036373    0.00041818
     atom   38 type  2   force =    -0.00718903    0.00936384    0.00459953
     atom   39 type  2   force =     0.00392797    0.00655944    0.00993010
     atom   40 type  2   force =     0.01088392   -0.00239329    0.00437804
     atom   41 type  2   force =    -0.00195236   -0.00966715   -0.00207156
     atom   42 type  2   force =     0.01181276   -0.00494041    0.00508383
     atom   43 type  2   force =     0.00500737    0.04922845   -0.00456363
     atom   44 type  2   force =    -0.00580460   -0.00520244   -0.01043117
     atom   45 type  2   force =    -0.01053918    0.00438439   -0.00443727
     atom   46 type  2   force =     0.00122664   -0.01200153   -0.00432994
     atom   47 type  2   force =     0.00695128   -0.00232523   -0.01061954
     atom   48 type  2   force =     0.00264658   -0.04683036   -0.00319536
     atom   49 type  2   force =    -0.00271345    0.00940355    0.00532162
     atom   50 type  2   force =     0.00368931    0.01186367   -0.00399008
     atom   51 type  2   force =    -0.00137342    0.00437774    0.00128273
     atom   52 type  2   force =    -0.00785029   -0.00032009    0.01047964
     atom   53 type  2   force =    -0.00480142   -0.01096984    0.00428701
     atom   54 type  2   force =    -0.00106583   -0.00184240   -0.00440073
     atom   55 type  2   force =    -0.00791911   -0.00831045    0.00495432
     atom   56 type  2   force =     0.00450711   -0.00411645    0.01097964
     atom   57 type  2   force =     0.01158920    0.00129159    0.00489577
     atom   58 type  2   force =     0.00880189    0.00709911   -0.00431786
     atom   59 type  2   force =    -0.00793089   -0.00479666    0.00345876
     atom   60 type  2   force =    -0.01116608   -0.00050146   -0.00513027
     atom   61 type  2   force =    -0.00111651    0.00724856   -0.01019002

     Total force =     0.118347     Total SCF correction =     0.006292

     Molecular Dynamics Calculation

     Starting temperature  =   300.00 K

     temperature is controlled by Andersen thermostat
     Collision frequency = 0.1000/timestep
     mass C                =    12.01
     mass H                =     1.01
     mass Ir               =   192.22
     mass N                =    14.01
     Time step             =    20.67 a.u.,  1.0000 femto-seconds

     Entering Dynamics:    iteration =     1
                           time      =   0.0010 pico-seconds


     Andersen thermostat:    8 collisions

ATOMIC_POSITIONS (angstrom)
Ir      -0.001372605  -0.000074033  -0.004181997
N        0.875901958  -1.632524454  -1.091423577
N       -1.847922327   0.053455135  -1.089224342
C       -0.602639707   1.616215113   1.036939827
C        1.704754924  -0.298971909   1.033775961
C        2.057731484  -2.058880982  -0.600650647
C        2.547537253  -1.331157818   0.566375861
N        0.970912914   1.573375907  -1.100344373
C       -1.102967963  -1.319241760   1.038553492
C        0.750157442   2.817347829  -0.610059610
C       -0.116325196   2.867237161   0.564960924
C       -2.804533264  -0.756840476  -0.611715305
C       -2.419815859  -1.534198700   0.563016265
C        2.141963345   0.409526879   2.170987887
C        3.352593079   0.101913215   2.787880994
C        4.158555832  -0.922170623   2.301457712
C        3.740790190  -1.632482180   1.189859397
C        2.717726448  -3.132620727  -1.216288204
C        2.157689086  -3.753373513  -2.307389887
C        0.932967475  -3.295179301  -2.790405675
C        0.335105322  -2.235310730  -2.148275529
C        1.779148354   1.407175135  -2.138553626
C        2.385673724   2.452761859  -2.793186977
C        2.172174451   3.745962256  -2.308917148
C        1.349905763   3.912591132  -1.214163832
C       -0.460453373   4.063416309   1.191981587
C       -1.279362110   4.065602170   2.292458876
C       -1.758827448   2.858110161   2.781609111
C       -1.432077912   1.649646961   2.167093677
C       -3.281053568  -2.438056057   1.195031307
C       -2.883997098  -3.141199516   2.304346437
C       -1.576165003  -2.939833886   2.785781782
C       -0.723331111  -2.064371053   2.163527164
C       -2.101980141   0.830173772  -2.156508719
C       -4.062887853  -0.778285078  -1.208247534
C       -4.320303603   0.005150838  -2.306416855
C       -3.321134578   0.838737488  -2.787719561
H        1.518189798   1.178301458   2.590392221
H        3.641778121   0.672800536   3.660758919
H        5.079430332  -1.167685016   2.800457315
H        4.383814305  -2.434936603   0.852265599
H        3.648596778  -3.458527071  -0.825603525
H        2.642837230  -4.545633530  -2.782332516
H        0.456458696  -3.739304076  -3.630209875
H       -0.642109054  -1.855608221  -2.475024851
H        1.885982500   0.369184044  -2.468951427
H        3.032675536   2.267085345  -3.636164633
H        2.622659061   4.605143739  -2.779455844
H        1.203782674   4.899914269  -0.826075190
H       -0.084518387   4.996984418   0.792711872
H       -1.549837003   4.998317255   2.775491675
H       -2.414159100   2.850796471   3.678652942
H       -1.811843278   0.744591378   2.556696669
H       -4.299194256  -2.550906929   0.813685526
H       -3.563692801  -3.850963668   2.794181829
H       -1.267766309  -3.518893228   3.676372117
H        0.278349051  -1.935287995   2.569458768
H       -1.276686672   1.465417983  -2.457273895
H       -4.846190965  -1.462513469  -0.828304797
H       -5.300616378  -0.040070254  -2.780838831
H       -3.497709448   1.493204284  -3.656704213


     kinetic energy (Ekin) =     0.16791581 Ry
     temperature           =   294.57530326 K 
     Ekin + Etot (const)   =  -544.56125091 Ry

     Linear momentum :   -0.0000000000    0.0000000000   -0.0000000000

     Writing output data file x0.save
     NEW-OLD atomic charge density approx. for the potential

     Check: negative/imaginary core charge=   -0.000003    0.000000

     negative rho (up, down):  6.724E-06 0.000E+00

     total cpu time spent up to now is       92.9 secs

     Self-consistent Calculation

     iteration #  1     ecut=    30.00 Ry     beta= 0.30
     Davidson diagonalization with overlap
     ethr =  1.00E-06,  avg # of iterations =  5.0

     negative rho (up, down):  6.467E-06 0.000E+00

     total cpu time spent up to now is      105.2 secs

     total energy              =    -544.71644401 Ry
     Harris-Foulkes estimate   =    -544.71816763 Ry
     estimated scf accuracy    <       0.00606235 Ry

     iteration #  2     ecut=    30.00 Ry     beta= 0.30
     Davidson diagonalization with overlap
     ethr =  3.37E-06,  avg # of iterations =  1.0

     negative rho (up, down):  1.344E-05 0.000E+00

     total cpu time spent up to now is      112.8 secs

     total energy              =    -544.71621210 Ry
     Harris-Foulkes estimate   =    -544.71675356 Ry
     estimated scf accuracy    <       0.00185265 Ry

     iteration #  3     ecut=    30.00 Ry     beta= 0.30
     Davidson diagonalization with overlap
     ethr =  1.03E-06,  avg # of iterations =  4.0

     negative rho (up, down):  7.804E-06 0.000E+00

     total cpu time spent up to now is      121.7 secs

     total energy              =    -544.71656279 Ry
     Harris-Foulkes estimate   =    -544.71668694 Ry
     estimated scf accuracy    <       0.00050423 Ry

     iteration #  4     ecut=    30.00 Ry     beta= 0.30
     Davidson diagonalization with overlap
     c_bands:  1 eigenvalues not converged
     ethr =  2.80E-07,  avg # of iterations = 20.0

     negative rho (up, down):  1.258E-05 0.000E+00

     total cpu time spent up to now is      130.6 secs

     total energy              =    -544.71657753 Ry
     Harris-Foulkes estimate   =    -544.71660802 Ry
     estimated scf accuracy    <       0.00017315 Ry

     iteration #  5     ecut=    30.00 Ry     beta= 0.30
     Davidson diagonalization with overlap
     ethr =  9.62E-08,  avg # of iterations =  6.0

     negative rho (up, down):  6.299E-06 0.000E+00

     total cpu time spent up to now is      139.4 secs

     End of self-consistent calculation

          k = 0.0000 0.0000 0.0000 ( 10540 PWs)   bands (ev):

   -20.8625 -20.7429 -20.6917 -17.4818 -17.3899 -17.2938 -17.0569 -16.7129
   -16.6660 -16.0835 -15.9891 -15.9782 -14.5535 -14.4459 -14.3653 -14.2881
   -14.2436 -14.1769 -12.8637 -12.6418 -12.5281 -12.4948 -12.2245 -12.1295
   -11.0492 -10.8137 -10.7635 -10.6621 -10.6010 -10.4922  -9.9960  -9.5499
    -9.4923  -8.7963  -8.7513  -8.6586  -8.6343  -8.4985  -8.4041  -8.3683
    -7.9869  -7.8445  -7.7374  -7.2804  -7.1904  -7.1237  -7.0055  -6.9477
    -6.9141  -6.8948  -6.8077  -6.7203  -6.6918  -6.5940  -6.4322  -6.2979
    -6.2112  -5.9072  -5.7348  -5.6576  -5.4652  -5.3867  -5.2990  -5.2934
    -5.1758  -5.1112  -4.7530  -4.7148  -4.6398  -4.3252  -4.3027  -4.2074
    -4.1112  -4.0359  -4.0270  -3.7768  -3.5956  -3.5608  -2.8944  -2.8473
    -2.6640  -2.6246  -2.5381  -2.3714  -2.2178  -2.0781  -1.9831  -1.1025
    -1.0476  -0.8829   1.2416   1.3688   1.4421   1.4775   1.7812   1.8997
     2.3073   2.8524   3.0869   3.1839   3.2938   3.3008   3.4613   3.5567
     3.5927   3.6775   3.7245   3.9543

     the Fermi energy is     0.2637 ev

!    total energy              =    -544.71658192 Ry
     Harris-Foulkes estimate   =    -544.71663609 Ry
     estimated scf accuracy    <       0.00008349 Ry

     convergence has been achieved in   5 iterations

     negative rho (up, down):  6.299E-06 0.000E+00

     Forces acting on atoms (cartesian axes, Ry/au):

     atom    1 type  3   force =     0.00393952   -0.00278865   -0.00772692
     atom    2 type  4   force =    -0.01359738    0.02697716    0.01386612
     atom    3 type  4   force =     0.02830531    0.01519492   -0.00932709
     atom    4 type  1   force =     0.00393397    0.00117744    0.00235027
     atom    5 type  1   force =    -0.00907393    0.02045693    0.01589705
     atom    6 type  1   force =     0.02684497   -0.00950540    0.01123745
     atom    7 type  1   force =    -0.02640634   -0.00582282   -0.02994443
     atom    8 type  4   force =    -0.01815015   -0.01128953    0.02501800
     atom    9 type  1   force =    -0.00218848   -0.00144770   -0.00086750
     atom   10 type  1   force =    -0.01538766    0.00150402    0.02605354
     atom   11 type  1   force =     0.00406074   -0.01102456   -0.01358393
     atom   12 type  1   force =    -0.01863719   -0.02194778    0.03112008
     atom   13 type  1   force =     0.00220474    0.00384389   -0.00892799
     atom   14 type  1   force =     0.01431958   -0.02305466   -0.01204271
     atom   15 type  1   force =    -0.01759836    0.00382244   -0.00810310
     atom   16 type  1   force =    -0.01145340    0.00458484    0.00011738
     atom   17 type  1   force =     0.02371223   -0.00096000    0.02545191
     atom   18 type  1   force =    -0.02774586    0.01907057   -0.00239861
     atom   19 type  1   force =    -0.03174968    0.08030670    0.01163890
     atom   20 type  1   force =     0.01916646    0.00696257    0.01957335
     atom   21 type  1   force =    -0.02784093   -0.00295674   -0.01675684
     atom   22 type  1   force =     0.00462779   -0.02677961   -0.02638610
     atom   23 type  1   force =     0.00606806    0.01702848    0.00448859
     atom   24 type  1   force =    -0.00451992   -0.04963219   -0.00311611
     atom   25 type  1   force =     0.01345186    0.00028075   -0.01243545
     atom   26 type  1   force =     0.00852860    0.00270100   -0.01388395
     atom   27 type  1   force =    -0.00746604    0.00478707    0.01612577
     atom   28 type  1   force =    -0.01773814   -0.01903097    0.02198498
     atom   29 type  1   force =     0.01505877    0.04694391   -0.01597337
     atom   30 type  1   force =    -0.01629649    0.00812664   -0.01596503
     atom   31 type  1   force =     0.01177419   -0.00863587    0.01824154
     atom   32 type  1   force =    -0.03331274   -0.03060047    0.02470385
     atom   33 type  1   force =     0.02338975    0.01177589    0.00110419
     atom   34 type  1   force =     0.01049598    0.00352528    0.00907209
     atom   35 type  1   force =    -0.02509521   -0.03178424    0.00565219
     atom   36 type  1   force =    -0.01527673   -0.00018065   -0.00632512
     atom   37 type  1   force =    -0.01017211    0.01909827   -0.03061803
     atom   38 type  2   force =    -0.01309006    0.01918541    0.00729187
     atom   39 type  2   force =     0.00912214    0.00633348    0.01430872
     atom   40 type  2   force =     0.02119559   -0.00580251    0.00692410
     atom   41 type  2   force =    -0.00300260   -0.01390107   -0.00838125
     atom   42 type  2   force =     0.03880401   -0.01553211    0.01563534
     atom   43 type  2   force =     0.03419257   -0.00113264   -0.03015632
     atom   44 type  2   force =    -0.01751628   -0.01836974   -0.03272598
     atom   45 type  2   force =     0.00710094   -0.00033318    0.00094333
     atom   46 type  2   force =     0.00606117    0.00267015   -0.00248682
     atom   47 type  2   force =     0.00896945   -0.00391884   -0.01510115
     atom   48 type  2   force =     0.00775365   -0.04095053   -0.00669333
     atom   49 type  2   force =    -0.00878400    0.02240655    0.01344107
     atom   50 type  2   force =     0.00333827    0.01652858   -0.00162526
     atom   51 type  2   force =    -0.00041685    0.00330962    0.00041126
     atom   52 type  2   force =     0.00995391    0.00015363   -0.01465101
     atom   53 type  2   force =    -0.01963491   -0.04462958    0.02033703
     atom   54 type  2   force =     0.00834331   -0.00542165    0.00023928
     atom   55 type  2   force =     0.00441235    0.00505856   -0.00254887
     atom   56 type  2   force =     0.00370789    0.01263709   -0.00983169
     atom   57 type  2   force =     0.00665077    0.00135244    0.00192250
     atom   58 type  2   force =     0.00502571    0.00741354   -0.00854664
     atom   59 type  2   force =     0.01555103    0.01656461   -0.00490495
     atom   60 type  2   force =    -0.00289423    0.00294251   -0.00295361
     atom   61 type  2   force =     0.00498038   -0.00729123    0.00983744

     Total force =     0.235481     Total SCF correction =     0.016839

     Entering Dynamics:    iteration =     2
                           time      =   0.0020 pico-seconds


     Andersen thermostat:    6 collisions

ATOMIC_POSITIONS (angstrom)
Ir      -0.002280185  -0.000044107  -0.004535484
N        0.879933024  -1.637973538  -1.091653078
N       -1.850263377   0.049296958  -1.087665400
C       -0.608938216   1.615912105   1.035846683
C        1.703141928  -0.307026804   1.035945787
C        2.058427400  -2.061780743  -0.598970697
C        2.547976287  -1.328678617   0.572022132
N        0.969434298   1.578159415  -1.109297150
C       -1.099273863  -1.324412830   1.041869337
C        0.748876988   2.824474282  -0.617482592
C       -0.111016574   2.871564164   0.567739751
C       -2.799361545  -0.759736733  -0.620689332
C       -2.420416237  -1.531950444   0.563946603
C        2.138082407   0.413635116   2.175115512
C        3.358712600   0.105642941   2.788793098
C        4.159185031  -0.920978987   2.301476331
C        3.731700105  -1.632756630   1.190112995
C        2.722149737  -3.137009986  -1.219137468
C        2.161482314  -3.756030707  -2.305270885
C        0.934450780  -3.292907230  -2.788258574
C        0.332092062  -2.238152316  -2.144733713
C        1.787052238   1.408504687  -2.130793782
C        2.382642727   2.449953005  -2.794132759
C        2.174885482   3.751366901  -2.308630178
C        1.348449320   3.911735622  -1.215096038
C       -0.458310644   4.062615966   1.193544879
C       -1.278828492   4.068760776   2.283809318
C       -1.759081342   2.866904789   2.776870811
C       -1.439294840   1.643881122   2.167245902
C       -3.279726287  -2.441341505   1.199298342
C       -2.888731055  -3.142979851   2.307628142
C       -1.564468151  -2.932792276   2.785272313
C       -0.723199157  -2.066851312   2.160465619
C       -2.100273542   0.828797919  -2.165971569
C       -4.060544114  -0.771289112  -1.202889838
C       -4.316922810   0.001095503  -2.303695873
C       -3.320389324   0.836807016  -2.783923063
H        1.498734853   1.158866724   2.609959248
H        3.629753386   0.686468859   3.662941218
H        5.068362054  -1.175481899   2.813388838
H        4.384798871  -2.443840121   0.889264994
H        3.647972711  -3.449152858  -0.829646863
H        2.634077608  -4.509018522  -2.789935440
H        0.459932266  -3.725345907  -3.624563183
H       -0.655898879  -1.860200961  -2.473488832
H        1.857858085   0.355863428  -2.462186988
H        3.038340602   2.265512857  -3.632130891
H        2.609428145   4.605057036  -2.778402081
H        1.228971384   4.900645862  -0.831130742
H       -0.080364464   4.988068147   0.771821850
H       -1.556866755   5.003537382   2.761853146
H       -2.424886154   2.865508347   3.691595149
H       -1.819173598   0.750335993   2.545781768
H       -4.300713230  -2.522321902   0.814228479
H       -3.572118696  -3.867763621   2.798504235
H       -1.278169253  -3.537535801   3.688220717
H        0.284776433  -1.939605265   2.566769620
H       -1.259843417   1.485907590  -2.439239463
H       -4.851961054  -1.487648753  -0.840109426
H       -5.302755797  -0.066478075  -2.780246791
H       -3.514922059   1.494839962  -3.667066528


     kinetic energy (Ekin) =     0.15200595 Ry
     temperature           =   266.66458104 K 
     Ekin + Etot (const)   =  -544.56457598 Ry
     Message from routine dynamics:
     Total linear momentum <> 0

     Linear momentum :   -0.6386953102   -0.1493605061    0.4048137585

     Writing output data file x0.save

     first order wave-functions extrapolation
     first order charge density extrapolation

     Check: negative/imaginary core charge=   -0.000003    0.000000

     negative rho (up, down):  5.945E-06 0.000E+00

     total cpu time spent up to now is      148.6 secs

     Self-consistent Calculation

     iteration #  1     ecut=    30.00 Ry     beta= 0.30
     Davidson diagonalization with overlap
     c_bands:  1 eigenvalues not converged
     ethr =  1.00E-06,  avg # of iterations = 20.0

     negative rho (up, down):  6.055E-06 0.000E+00

     total cpu time spent up to now is      159.9 secs

     total energy              =    -544.68961148 Ry
     Harris-Foulkes estimate   =    -544.69140797 Ry
     estimated scf accuracy    <       0.00427368 Ry

     iteration #  2     ecut=    30.00 Ry     beta= 0.30
     Davidson diagonalization with overlap
     ethr =  2.37E-06,  avg # of iterations = 11.0

     negative rho (up, down):  6.196E-06 0.000E+00

     total cpu time spent up to now is      167.7 secs

     total energy              =    -544.69006376 Ry
     Harris-Foulkes estimate   =    -544.69049891 Ry
     estimated scf accuracy    <       0.00134491 Ry

     iteration #  3     ecut=    30.00 Ry     beta= 0.30
     Davidson diagonalization with overlap
     ethr =  7.47E-07,  avg # of iterations =  4.0

     negative rho (up, down):  6.070E-06 0.000E+00

     total cpu time spent up to now is      175.1 secs

     total energy              =    -544.69033031 Ry
     Harris-Foulkes estimate   =    -544.69037460 Ry
     estimated scf accuracy    <       0.00020249 Ry

     iteration #  4     ecut=    30.00 Ry     beta= 0.30
     Davidson diagonalization with overlap
     ethr =  1.12E-07,  avg # of iterations =  4.0

     negative rho (up, down):  6.198E-06 0.000E+00

     total cpu time spent up to now is      183.6 secs

     End of self-consistent calculation

          k = 0.0000 0.0000 0.0000 ( 10540 PWs)   bands (ev):

   -20.8855 -20.7673 -20.7165 -17.4952 -17.3824 -17.2914 -17.0892 -16.7355
   -16.6655 -16.0800 -15.9927 -15.9715 -14.5607 -14.4708 -14.3644 -14.2852
   -14.2255 -14.1572 -12.9058 -12.6606 -12.5159 -12.4698 -12.2116 -12.1474
   -11.0406 -10.8065 -10.7550 -10.6754 -10.5928 -10.4797 -10.0121  -9.5149
    -9.5086  -8.8041  -8.7498  -8.6695  -8.6496  -8.4840  -8.4006  -8.3159
    -7.9623  -7.8204  -7.7165  -7.2885  -7.2053  -7.1258  -7.0011  -6.9741
    -6.9224  -6.8774  -6.7819  -6.7152  -6.6762  -6.5714  -6.4520  -6.3122
    -6.2002  -5.9112  -5.7127  -5.6842  -5.4805  -5.3395  -5.2917  -5.2636
    -5.1666  -5.1154  -4.7674  -4.7132  -4.6248  -4.3321  -4.2892  -4.1999
    -4.1101  -4.0447  -3.9944  -3.7708  -3.5990  -3.5714  -2.8952  -2.8337
    -2.6737  -2.6152  -2.5418  -2.3643  -2.2361  -2.0912  -1.9786  -1.1007
    -1.0494  -0.8824   1.2368   1.3552   1.4500   1.4747   1.7782   1.9173
     2.3022   2.8464   3.0710   3.1814   3.2835   3.3029   3.4473   3.5591
     3.5786   3.6762   3.7176   3.9505

     the Fermi energy is     0.2570 ev

!    total energy              =    -544.69037689 Ry
     Harris-Foulkes estimate   =    -544.69042543 Ry
     estimated scf accuracy    <       0.00009353 Ry

     convergence has been achieved in   4 iterations

     negative rho (up, down):  6.198E-06 0.000E+00

     Forces acting on atoms (cartesian axes, Ry/au):

     atom    1 type  3   force =     0.00331720   -0.00688252   -0.00657737
     atom    2 type  4   force =    -0.01890328    0.03317969    0.01851947
     atom    3 type  4   force =     0.03894767    0.03048713   -0.02726686
     atom    4 type  1   force =     0.00924507    0.00470718    0.00127034
     atom    5 type  1   force =    -0.01268373    0.03989689    0.02575252
     atom    6 type  1   force =     0.03103865   -0.01271860    0.01003386
     atom    7 type  1   force =    -0.03521848   -0.01604421   -0.04743213
     atom    8 type  4   force =    -0.02685647   -0.00697800    0.04198531
     atom    9 type  1   force =    -0.01233706    0.00839740   -0.01708821
     atom   10 type  1   force =    -0.02176062   -0.01282915    0.03824278
     atom   11 type  1   force =     0.00004970   -0.02496687   -0.01685786
     atom   12 type  1   force =    -0.02397582   -0.02939642    0.05099209
     atom   13 type  1   force =     0.00916089   -0.00179254   -0.00545811
     atom   14 type  1   force =     0.02187247   -0.03766843   -0.01673127
     atom   15 type  1   force =    -0.03215510    0.01107316   -0.01065710
     atom   16 type  1   force =    -0.01773455    0.00732686   -0.00050237
     atom   17 type  1   force =     0.04641584   -0.00351486    0.04288306
     atom   18 type  1   force =    -0.03977065    0.03158669    0.00345388
     atom   19 type  1   force =    -0.06428345    0.12154145    0.02864255
     atom   20 type  1   force =     0.02494082    0.01013392    0.03050352
     atom   21 type  1   force =    -0.03435540   -0.00160756   -0.02140496
     atom   22 type  1   force =    -0.00028469   -0.04683438   -0.03953023
     atom   23 type  1   force =     0.01560717    0.03185212    0.00275150
     atom   24 type  1   force =    -0.01358082   -0.07416975   -0.00106273
     atom   25 type  1   force =     0.02378559    0.00984513   -0.02104643
     atom   26 type  1   force =     0.01837631    0.00871708   -0.02918433
     atom   27 type  1   force =    -0.01496623    0.00993884    0.02807485
     atom   28 type  1   force =    -0.03129880   -0.03554512    0.03844976
     atom   29 type  1   force =     0.02460972    0.08206075   -0.02434955
     atom   30 type  1   force =    -0.02004584    0.01857862   -0.02421969
     atom   31 type  1   force =     0.02206942   -0.01425778    0.02828701
     atom   32 type  1   force =    -0.06639614   -0.06322195    0.04433801
     atom   33 type  1   force =     0.04776219    0.01725030    0.00871993
     atom   34 type  1   force =     0.03300182    0.01165322    0.02357710
     atom   35 type  1   force =    -0.04456400   -0.05521927    0.00710096
     atom   36 type  1   force =    -0.02745999   -0.00132563   -0.01051527
     atom   37 type  1   force =    -0.01771229    0.03324861   -0.05510111
     atom   38 type  2   force =    -0.01276747    0.02161822    0.00683028
     atom   39 type  2   force =     0.01219515    0.00316123    0.01311489
     atom   40 type  2   force =     0.02423305   -0.00724711    0.00621706
     atom   41 type  2   force =    -0.00746786   -0.01365239   -0.01328102
     atom   42 type  2   force =     0.05193961   -0.02067193    0.02020639
     atom   43 type  2   force =     0.06178541   -0.04868171   -0.05657383
     atom   44 type  2   force =    -0.02246957   -0.02513115   -0.04372773
     atom   45 type  2   force =     0.01811119   -0.00344276    0.00505092
     atom   46 type  2   force =     0.01152146    0.01657089   -0.00070569
     atom   47 type  2   force =     0.00731184   -0.00421533   -0.01450354
     atom   48 type  2   force =     0.01545088   -0.02552050   -0.01314735
     atom   49 type  2   force =    -0.01273040    0.02643309    0.01761366
     atom   50 type  2   force =     0.00124800    0.01641746    0.00252356
     atom   51 type  2   force =     0.00051122    0.00185427   -0.00034274
     atom   52 type  2   force =     0.02305173    0.00022375   -0.03334296
     atom   53 type  2   force =    -0.02855945   -0.06345943    0.02971419
     atom   54 type  2   force =     0.00882205   -0.00964649    0.00206604
     atom   55 type  2   force =     0.01465630    0.01622171   -0.00829650
     atom   56 type  2   force =     0.00453274    0.02653544   -0.02583303
     atom   57 type  2   force =     0.00078135    0.00109352   -0.00093909
     atom   58 type  2   force =    -0.01390879   -0.00665817   -0.00676301
     atom   59 type  2   force =     0.03150765    0.03259185   -0.00893374
     atom   60 type  2   force =     0.00602641    0.00660671   -0.00030287
     atom   61 type  2   force =     0.01036034   -0.01750318    0.02476320

     Total force =     0.380494     Total SCF correction =     0.012456

     Entering Dynamics:    iteration =     3
                           time      =   0.0030 pico-seconds


     Andersen thermostat:    6 collisions

ATOMIC_POSITIONS (angstrom)
Ir      -0.003780817   0.000036770  -0.005103753
N        0.883031946  -1.642775118  -1.091760862
N       -1.852511930   0.045738594  -1.086795696
C       -0.615643098   1.615766159   1.034573483
C        1.703339571  -0.302267715   1.032917421
C        2.059167097  -2.064883377  -0.597289789
C        2.547090539  -1.326470981   0.576482381
N        0.966882674   1.582879165  -1.117712590
C       -1.096431923  -1.329350616   1.044625924
C        0.746788257   2.829784209  -0.605787273
C       -0.106304260   2.875435303   0.569964078
C       -2.795282388  -0.763180348  -0.628816396
C       -2.413874769  -1.536485847   0.561070353
C        2.139085400   0.415326739   2.176772368
C        3.363570613   0.109661222   2.789278782
C        4.158850583  -0.919576177   2.301278278
C        3.735181764  -1.631565455   1.192420044
C        2.725154217  -3.140686978  -1.222121687
C        2.163350411  -3.756117588  -2.302766557
C        0.935851912  -3.290366005  -2.785687707
C        0.327771846  -2.240967273  -2.141840319
C        1.794352908   1.408926694  -2.124056743
C        2.379336768   2.447861901  -2.795228001
C        2.176718663   3.755299379  -2.308571453
C        1.346886841   3.911143299  -1.216669261
C       -0.451519906   4.055501394   1.196566966
C       -1.279201340   4.072184507   2.275533361
C       -1.760579057   2.875025056   2.772720409
C       -1.446600779   1.639870108   2.166688885
C       -3.279410393  -2.444183372   1.202858817
C       -2.893606494  -3.144994851   2.311287830
C       -1.554740067  -2.926996702   2.785472366
C       -0.722677994  -2.068915427   2.157377891
C       -2.098482614   0.827722600  -2.175153720
C       -4.059718193  -0.765373884  -1.197591764
C       -4.314706547  -0.002927380  -2.301398384
C       -3.320607256   0.835623139  -2.781470993
H        1.475537359   1.144817387   2.631002594
H        3.620135545   0.700975774   3.668148023
H        5.062666158  -1.185004244   2.827645614
H        4.383346427  -2.456047019   0.922786367
H        3.659546429  -3.444811258  -0.828918731
H        2.639941244  -4.484336229  -2.811681399
H        0.457273213  -3.717518863  -3.629894939
H       -0.665824417  -1.865581977  -2.470914834
H        1.831974603   0.346684819  -2.455802688
H        3.045209578   2.262961773  -3.631876334
H        2.599406159   4.598743293  -2.780793409
H        1.250426677   4.907948978  -0.832053532
H       -0.076500435   4.983256086   0.751347201
H       -1.564367905   5.009274135   2.747923890
H       -2.430531839   2.880335176   3.696117156
H       -1.834136761   0.740507461   2.541980546
H       -4.300656259  -2.496053415   0.815074099
H       -3.577531403  -3.880507586   2.800576538
H       -1.288052908  -3.549581639   3.693499157
H        0.290798964  -1.943593316   2.563642836
H       -1.247023873   1.504816818  -2.423077367
H       -4.850566691  -1.504695330  -0.854321141
H       -5.304007968  -0.091198525  -2.779935657
H       -3.530179774   1.492223634  -3.671534822


     kinetic energy (Ekin) =     0.13170818 Ry
     temperature           =   231.05613266 K 
     Ekin + Etot (const)   =  -544.55866871 Ry
     Message from routine dynamics:
     Total linear momentum <> 0

     Linear momentum :    0.8294853914   -0.0830882546    0.2864706040

     Writing output data file x0.save

     second order wave-functions extrapolation
     second order charge density extrapolation

     Check: negative/imaginary core charge=   -0.000003    0.000000

     negative rho (up, down):  5.581E-06 0.000E+00

     total cpu time spent up to now is      192.8 secs

     Self-consistent Calculation

     iteration #  1     ecut=    30.00 Ry     beta= 0.30
     Davidson diagonalization with overlap
     ethr =  1.00E-06,  avg # of iterations =  5.0

     negative rho (up, down):  5.630E-06 0.000E+00

     total cpu time spent up to now is      203.1 secs

     total energy              =    -544.67337061 Ry
     Harris-Foulkes estimate   =    -544.67446384 Ry
     estimated scf accuracy    <       0.00288389 Ry

     iteration #  2     ecut=    30.00 Ry     beta= 0.30
     Davidson diagonalization with overlap
     ethr =  1.60E-06,  avg # of iterations =  4.0

     negative rho (up, down):  5.818E-06 0.000E+00

     total cpu time spent up to now is      210.3 secs

     total energy              =    -544.67354217 Ry
     Harris-Foulkes estimate   =    -544.67379537 Ry
     estimated scf accuracy    <       0.00082626 Ry

     iteration #  3     ecut=    30.00 Ry     beta= 0.30
     Davidson diagonalization with overlap
     ethr =  4.59E-07,  avg # of iterations =  4.0

     negative rho (up, down):  5.843E-06 0.000E+00

     total cpu time spent up to now is      217.8 secs

     total energy              =    -544.67369038 Ry
     Harris-Foulkes estimate   =    -544.67373650 Ry
     estimated scf accuracy    <       0.00022280 Ry

     iteration #  4     ecut=    30.00 Ry     beta= 0.30
     Davidson diagonalization with overlap
     ethr =  1.24E-07,  avg # of iterations =  3.0

     negative rho (up, down):  6.077E-06 0.000E+00

     total cpu time spent up to now is      225.3 secs

     End of self-consistent calculation

          k = 0.0000 0.0000 0.0000 ( 10540 PWs)   bands (ev):

   -20.8890 -20.7573 -20.7158 -17.4872 -17.3798 -17.3256 -17.0873 -16.7534
   -16.6400 -16.0728 -16.0041 -15.9621 -14.5740 -14.4596 -14.3653 -14.2913
   -14.2266 -14.1509 -12.8922 -12.6479 -12.4874 -12.4576 -12.2012 -12.1533
   -11.0328 -10.7952 -10.7392 -10.6666 -10.5901 -10.4795  -9.9949  -9.4917
    -9.4893  -8.8017  -8.7412  -8.6724  -8.6294  -8.4586  -8.3681  -8.2856
    -7.9387  -7.7975  -7.6970  -7.2830  -7.2157  -7.1341  -6.9946  -6.9716
    -6.9153  -6.8502  -6.7516  -6.7161  -6.6594  -6.5439  -6.4517  -6.2976
    -6.1808  -5.9194  -5.6993  -5.6949  -5.4742  -5.3198  -5.2814  -5.2483
    -5.1744  -5.1065  -4.7650  -4.6961  -4.6120  -4.3298  -4.2775  -4.1885
    -4.0980  -4.0371  -3.9634  -3.7618  -3.6024  -3.5774  -2.8915  -2.8159
    -2.6846  -2.6145  -2.5441  -2.3546  -2.2372  -2.0966  -1.9779  -1.0954
    -1.0495  -0.8736   1.2254   1.3412   1.4598   1.4765   1.7738   1.9230
     2.2954   2.8468   3.0602   3.1816   3.2760   3.2957   3.4362   3.5596
     3.5647   3.6731   3.7119   3.9455

     the Fermi energy is     0.2522 ev

!    total energy              =    -544.67372212 Ry
     Harris-Foulkes estimate   =    -544.67374098 Ry
     estimated scf accuracy    <       0.00006326 Ry

     convergence has been achieved in   4 iterations

     negative rho (up, down):  6.077E-06 0.000E+00

     Forces acting on atoms (cartesian axes, Ry/au):

     atom    1 type  3   force =     0.00322078   -0.00650097   -0.00715451
     atom    2 type  4   force =    -0.02383427    0.03779021    0.02173107
     atom    3 type  4   force =     0.04789393    0.04201587   -0.04198914
     atom    4 type  1   force =     0.01235773    0.00469625    0.00165691
     atom    5 type  1   force =    -0.01110780    0.04008710    0.03017350
     atom    6 type  1   force =     0.03343373   -0.01357421    0.01083007
     atom    7 type  1   force =    -0.02976693   -0.02174018   -0.05473444
     atom    8 type  4   force =    -0.03628157   -0.00031971    0.06390686
     atom    9 type  1   force =    -0.01573405    0.01688069   -0.03176457
     atom   10 type  1   force =    -0.00969497   -0.02073604    0.01485437
     atom   11 type  1   force =    -0.00600466   -0.04447088   -0.01123772
     atom   12 type  1   force =    -0.02633445   -0.03630203    0.06697889
     atom   13 type  1   force =     0.00417605   -0.00524090   -0.00285395
     atom   14 type  1   force =     0.01234536   -0.03003830   -0.01161842
     atom   15 type  1   force =    -0.03942964    0.01894715   -0.00666536
     atom   16 type  1   force =    -0.00732740    0.00935116    0.00921771
     atom   17 type  1   force =     0.03873456   -0.00389154    0.04335939
     atom   18 type  1   force =    -0.02892952    0.03618959    0.01876892
     atom   19 type  1   force =    -0.07154390    0.12404196    0.02348139
     atom   20 type  1   force =     0.01776214    0.00488011    0.02223248
     atom   21 type  1   force =    -0.03496525   -0.00132389   -0.02200413
     atom   22 type  1   force =    -0.00737466   -0.05762241   -0.04803945
     atom   23 type  1   force =     0.02758976    0.04044967   -0.00288094
     atom   24 type  1   force =    -0.02418533   -0.09925997    0.00366200
     atom   25 type  1   force =     0.02586740    0.02087432   -0.01350009
     atom   26 type  1   force =     0.02404463    0.03493960   -0.04078051
     atom   27 type  1   force =    -0.01949759    0.01152494    0.03662305
     atom   28 type  1   force =    -0.03797120   -0.04784022    0.04548547
     atom   29 type  1   force =     0.02221060    0.08565754   -0.02140079
     atom   30 type  1   force =    -0.01744672    0.02644157   -0.03012936
     atom   31 type  1   force =     0.03220325   -0.01453762    0.03223302
     atom   32 type  1   force =    -0.09428365   -0.08652993    0.05519650
     atom   33 type  1   force =     0.06744525    0.02028578    0.01683122
     atom   34 type  1   force =     0.04831910    0.01810908    0.03695571
     atom   35 type  1   force =    -0.05246044   -0.06960140    0.00516596
     atom   36 type  1   force =    -0.03558951   -0.00165127   -0.01379064
     atom   37 type  1   force =    -0.02282394    0.03957188   -0.06869438
     atom   38 type  2   force =    -0.00122671    0.01225669   -0.00022466
     atom   39 type  2   force =     0.01288814   -0.00323665    0.00725258
     atom   40 type  2   force =     0.01913842   -0.00536268    0.00220438
     atom   41 type  2   force =    -0.00768275   -0.01512913   -0.01722525
     atom   42 type  2   force =     0.04305796   -0.01826363    0.01530283
     atom   43 type  2   force =     0.06736069   -0.05869685   -0.06207986
     atom   44 type  2   force =    -0.01708191   -0.02238618   -0.03670495
     atom   45 type  2   force =     0.02318996   -0.00437755    0.00705125
     atom   46 type  2   force =     0.01684061    0.02518789   -0.00015487
     atom   47 type  2   force =     0.00240606   -0.00322870   -0.00951215
     atom   48 type  2   force =     0.02259254   -0.00738975   -0.01993429
     atom   49 type  2   force =    -0.01424496    0.01979410    0.01617967
     atom   50 type  2   force =    -0.00287946    0.00704325    0.01026286
     atom   51 type  2   force =     0.00171619    0.00060609   -0.00153874
     atom   52 type  2   force =     0.02827429   -0.00023095   -0.04147799
     atom   53 type  2   force =    -0.02486874   -0.05291506    0.02632937
     atom   54 type  2   force =     0.00737887   -0.01317654    0.00279485
     atom   55 type  2   force =     0.01984927    0.02252493   -0.01039422
     atom   56 type  2   force =     0.00755320    0.03418800   -0.03295012
     atom   57 type  2   force =    -0.00419026    0.00108410   -0.00320910
     atom   58 type  2   force =    -0.02830069   -0.01813483   -0.00650904
     atom   59 type  2   force =     0.03710130    0.03966783   -0.00800036
     atom   60 type  2   force =     0.01223043    0.00992682    0.00135801
     atom   61 type  2   force =     0.01388073   -0.02130418    0.03107375

     Total force =     0.438056     Total SCF correction =     0.008428

     Entering Dynamics:    iteration =     4
                           time      =   0.0040 pico-seconds


     Andersen thermostat:    4 collisions

ATOMIC_POSITIONS (angstrom)
Ir      -0.005228630  -0.000241878  -0.005526342
N        0.885757386  -1.647258504  -1.091328837
N       -1.854325887   0.052261178  -1.091761602
C       -0.622044064   1.615366080   1.033489421
C        1.703356442  -0.297031749   1.030667214
C        2.060646041  -2.068617526  -0.595230269
C        2.545638608  -1.325063531   0.579966986
N        0.963737104   1.587242116  -1.124841214
C       -1.093866311  -1.334290861   1.046881317
C        0.744547936   2.834314690  -0.593630219
C       -0.101667310   2.878036745   0.572111201
C       -2.791698514  -0.767724929  -0.635405074
C       -2.407198379  -1.541480637   0.558290067
C        2.140392055   0.416046775   2.178344156
C        3.367662857   0.113719726   2.789781705
C        4.158413449  -0.918331353   2.301425535
C        3.739512161  -1.630805797   1.195777608
C        2.727609812  -3.143967599  -1.224563313
C        2.167660326  -3.754819994  -2.303347840
C        0.937668590  -3.288075116  -2.782502707
C        0.322778075  -2.244160711  -2.139246514
C        1.801549915   1.407807355  -2.118157060
C        2.376649347   2.446255162  -2.796227837
C        2.178100952   3.756830475  -2.308282175
C        1.345907326   3.910631007  -1.218366418
C       -0.444183855   4.048757374   1.198901633
C       -1.279928254   4.075495153   2.268168779
C       -1.762812416   2.881806031   2.769664439
C       -1.453399288   1.637277243   2.165844741
C       -3.285578088  -2.438292340   1.206290596
C       -2.897768101  -3.147661266   2.315768215
C       -1.546910779  -2.923339567   2.786967434
C       -0.720715063  -2.070911669   2.154792733
C       -2.095644976   0.826670195  -2.183417626
C       -4.059927196  -0.761247432  -1.192032070
C       -4.313176732  -0.007335506  -2.299230830
C       -3.321247961   0.834905495  -2.780282913
H        1.452086334   1.133436301   2.652145509
H        3.613741309   0.714334215   3.675296388
H        5.061733600  -1.196198801   2.842600344
H        4.380050031  -2.472332054   0.952219282
H        3.681775969  -3.445319969  -0.824265893
H        2.662447584  -4.474464809  -2.848565573
H        0.450454762  -3.715557703  -3.644113903
H       -0.669988536  -1.872392521  -2.466448874
H        1.810288404   0.343360010  -2.449301624
H        3.052719943   2.259264175  -3.633810144
H        2.594998421   4.590257978  -2.787940559
H        1.268421443   4.919777157  -0.828835610
H       -0.073297086   4.979827966   0.733555681
H       -1.571397615   5.014809059   2.733770486
H       -2.429163602   2.894753975   3.690576138
H       -1.855177576   0.717292378   2.544820375
H       -4.298732868  -2.473382051   0.816763132
H       -3.578005657  -3.888053757   2.800243180
H       -1.296027200  -3.553556533   3.690815378
H        0.295837906  -1.947665440   2.559880416
H       -1.241127429   1.518907467  -2.408363832
H       -4.839983906  -1.512321030  -0.870348799
H       -5.302198555  -0.113824678  -2.779135067
H       -3.539736371   1.485594820  -3.655546578


     kinetic energy (Ekin) =     0.12202863 Ry
     temperature           =   214.07526628 K 
     Ekin + Etot (const)   =  -544.55169349 Ry
     Message from routine dynamics:
     Total linear momentum <> 0

     Linear momentum :   -0.0675766068    0.4876034838   -0.2151210864

     Writing output data file x0.save

     second order wave-functions extrapolation
     second order charge density extrapolation

     Check: negative/imaginary core charge=   -0.000003    0.000000

     negative rho (up, down):  5.658E-06 0.000E+00

     total cpu time spent up to now is      234.9 secs

     Self-consistent Calculation

     iteration #  1     ecut=    30.00 Ry     beta= 0.30
     Davidson diagonalization with overlap
     ethr =  1.00E-06,  avg # of iterations =  4.0

     negative rho (up, down):  5.808E-06 0.000E+00

     total cpu time spent up to now is      245.1 secs

     total energy              =    -544.67008843 Ry
     Harris-Foulkes estimate   =    -544.67114672 Ry
     estimated scf accuracy    <       0.00246614 Ry

     iteration #  2     ecut=    30.00 Ry     beta= 0.30
     Davidson diagonalization with overlap
     ethr =  1.37E-06,  avg # of iterations =  4.0

     negative rho (up, down):  5.993E-06 0.000E+00

     total cpu time spent up to now is      252.5 secs

     total energy              =    -544.67043998 Ry
     Harris-Foulkes estimate   =    -544.67074558 Ry
     estimated scf accuracy    <       0.00101869 Ry

     iteration #  3     ecut=    30.00 Ry     beta= 0.30
     Davidson diagonalization with overlap
     ethr =  5.66E-07,  avg # of iterations =  3.0

     negative rho (up, down):  5.917E-06 0.000E+00

     total cpu time spent up to now is      259.7 secs

     total energy              =    -544.67056503 Ry
     Harris-Foulkes estimate   =    -544.67060005 Ry
     estimated scf accuracy    <       0.00013258 Ry

     iteration #  4     ecut=    30.00 Ry     beta= 0.30
     Davidson diagonalization with overlap
     ethr =  7.37E-08,  avg # of iterations =  4.0

     negative rho (up, down):  6.067E-06 0.000E+00

     total cpu time spent up to now is      267.8 secs

     End of self-consistent calculation

          k = 0.0000 0.0000 0.0000 ( 10540 PWs)   bands (ev):

   -20.8811 -20.7420 -20.6819 -17.4693 -17.3825 -17.3432 -17.0608 -16.7514
   -16.6098 -16.0627 -16.0100 -15.9687 -14.5784 -14.4320 -14.3585 -14.2873
   -14.2287 -14.1437 -12.8433 -12.6142 -12.4595 -12.4554 -12.1988 -12.1458
   -11.0197 -10.7883 -10.7261 -10.6408 -10.5974 -10.4737  -9.9585  -9.4834
    -9.4531  -8.7939  -8.7284  -8.6681  -8.5907  -8.4297  -8.3110  -8.2809
    -7.9211  -7.7884  -7.6965  -7.2777  -7.2152  -7.1350  -6.9865  -6.9596
    -6.8982  -6.8289  -6.7244  -6.7071  -6.6498  -6.5173  -6.4328  -6.2634
    -6.1741  -5.9317  -5.6964  -5.6734  -5.4558  -5.3121  -5.2737  -5.2458
    -5.1783  -5.0994  -4.7433  -4.6825  -4.5998  -4.3201  -4.2592  -4.1697
    -4.0772  -4.0178  -3.9482  -3.7537  -3.6039  -3.5838  -2.8795  -2.8011
    -2.6849  -2.6111  -2.5425  -2.3416  -2.2298  -2.0929  -1.9758  -1.0939
    -1.0535  -0.8686   1.2133   1.3309   1.4539   1.4825   1.7780   1.9266
     2.2929   2.8422   3.0432   3.1802   3.2731   3.2853   3.4333   3.5494
     3.5612   3.6691   3.7054   3.9460

     the Fermi energy is     0.2538 ev

!    total energy              =    -544.67059253 Ry
     Harris-Foulkes estimate   =    -544.67060665 Ry
     estimated scf accuracy    <       0.00003724 Ry

     convergence has been achieved in   4 iterations

     negative rho (up, down):  6.067E-06 0.000E+00

     Forces acting on atoms (cartesian axes, Ry/au):

     atom    1 type  3   force =     0.00397365   -0.00452461   -0.00811445
     atom    2 type  4   force =    -0.02821103    0.04066205    0.02364364
     atom    3 type  4   force =     0.04958836    0.03053359   -0.03622340
     atom    4 type  1   force =     0.01561108    0.00393249    0.00174149
     atom    5 type  1   force =    -0.00947528    0.03697876    0.03196790
     atom    6 type  1   force =     0.03246584   -0.01316553    0.01118722
     atom    7 type  1   force =    -0.02129502   -0.02545746   -0.05718372
     atom    8 type  4   force =    -0.04217550    0.00434386    0.08158462
     atom    9 type  1   force =    -0.01612053    0.02338122   -0.04265044
     atom   10 type  1   force =     0.00417726   -0.02688838   -0.01082823
     atom   11 type  1   force =    -0.01264558   -0.06179944   -0.00461257
     atom   12 type  1   force =    -0.02175156   -0.03112417    0.07299013
     atom   13 type  1   force =    -0.00345746   -0.00453543   -0.00293430
     atom   14 type  1   force =    -0.00100940   -0.01818124   -0.00358472
     atom   15 type  1   force =    -0.04310772    0.02633952   -0.00001743
     atom   16 type  1   force =     0.00809303    0.00974372    0.02220403
     atom   17 type  1   force =     0.02953391   -0.00761780    0.03887083
     atom   18 type  1   force =    -0.00091541    0.03314003    0.03753180
     atom   19 type  1   force =    -0.05545768    0.09198771   -0.00451030
     atom   20 type  1   force =     0.00424921   -0.00818601   -0.00121129
     atom   21 type  1   force =    -0.02786758   -0.00276720   -0.01823400
     atom   22 type  1   force =    -0.01514440   -0.05898154   -0.05229839
     atom   23 type  1   force =     0.03925165    0.04299559   -0.00959966
     atom   24 type  1   force =    -0.03077491   -0.11572008    0.00513826
     atom   25 type  1   force =     0.02551532    0.03739541   -0.00139939
     atom   26 type  1   force =     0.02614271    0.05965118   -0.04803366
     atom   27 type  1   force =    -0.02164324    0.01128112    0.04156134
     atom   28 type  1   force =    -0.03672912   -0.05581268    0.04194022
     atom   29 type  1   force =     0.00961394    0.06367675   -0.00901012
     atom   30 type  1   force =     0.00005721    0.02275527   -0.02206438
     atom   31 type  1   force =     0.04039829   -0.00265698    0.02326979
     atom   32 type  1   force =    -0.11740958   -0.09777584    0.05369620
     atom   33 type  1   force =     0.07878130    0.02107696    0.02316166
     atom   34 type  1   force =     0.05217144    0.02674309    0.04219564
     atom   35 type  1   force =    -0.04650703   -0.07424350    0.00048942
     atom   36 type  1   force =    -0.03675595    0.00115151   -0.01694054
     atom   37 type  1   force =    -0.02516379    0.03157778   -0.06221631
     atom   38 type  2   force =     0.01279082    0.00095848   -0.00912484
     atom   39 type  2   force =     0.01240352   -0.01059755   -0.00081950
     atom   40 type  2   force =     0.00830956   -0.00127585   -0.00481548
     atom   41 type  2   force =    -0.01002598   -0.01246476   -0.01901063
     atom   42 type  2   force =     0.01778409   -0.01049896    0.00387173
     atom   43 type  2   force =     0.04839667   -0.03061954   -0.04140704
     atom   44 type  2   force =    -0.00414331   -0.01255965   -0.01571295
     atom   45 type  2   force =     0.02111121   -0.00303552    0.00667480
     atom   46 type  2   force =     0.02175783    0.02644214   -0.00122552
     atom   47 type  2   force =    -0.00398316   -0.00136450   -0.00254585
     atom   48 type  2   force =     0.02598493    0.00465761   -0.02303255
     atom   49 type  2   force =    -0.01452489    0.00525446    0.01081539
     atom   50 type  2   force =    -0.00619062   -0.00157297    0.01720520
     atom   51 type  2   force =     0.00264388   -0.00016512   -0.00214796
     atom   52 type  2   force =     0.02536207   -0.00108266   -0.03844006
     atom   53 type  2   force =    -0.01085916   -0.01949815    0.01327167
     atom   54 type  2   force =    -0.00224668   -0.01509885    0.00043209
     atom   55 type  2   force =     0.01930674    0.02279858   -0.00880333
     atom   56 type  2   force =     0.01219782    0.03425072   -0.03033177
     atom   57 type  2   force =    -0.00620444    0.00141371   -0.00407795
     atom   58 type  2   force =    -0.03438352   -0.02277004   -0.00931756
     atom   59 type  2   force =     0.03192907    0.03678028   -0.00280872
     atom   60 type  2   force =     0.01422733    0.01284006    0.00149345
     atom   61 type  2   force =     0.01234979   -0.01270168    0.01835048

     Total force =     0.429865     Total SCF correction =     0.007675

     Entering Dynamics:    iteration =     5
                           time      =   0.0050 pico-seconds


     Andersen thermostat:    9 collisions

ATOMIC_POSITIONS (angstrom)
Ir      -0.006592573  -0.000409619  -0.005564886
N        0.888061900  -1.650904948  -1.090083526
N       -1.855182808   0.059441311  -1.096974571
C       -0.628043837   1.615163974   1.032835847
C        1.705711621  -0.291116549   1.028952431
C        2.062874319  -2.072506867  -0.592545156
C        2.543825563  -1.324065166   0.582664961
N        0.959923274   1.591798751  -1.130130317
C       -1.090776268  -1.332608893   1.039479659
C        0.742472639   2.838406529  -0.581302308
C       -0.097212819   2.879478446   0.574557566
C       -2.788485185  -0.772795644  -0.640091600
C       -2.400514663  -1.546452362   0.555843690
C        2.141756601   0.416508018   2.180236418
C        3.370943438   0.118439028   2.790678785
C        4.158222220  -0.916768522   2.302425940
C        3.744531332  -1.630086741   1.200332580
C        2.730125239  -3.146446954  -1.225835191
C        2.170903485  -3.751505617  -2.303627768
C        0.940849266  -3.288002912  -2.781153581
C        0.317287431  -2.247294560  -2.136634820
C        1.808512850   1.405586479  -2.112943100
C        2.374851423   2.445653259  -2.797031439
C        2.178926315   3.756088081  -2.307492247
C        1.345533579   3.911007876  -1.219697962
C       -0.436229077   4.043362215   1.200638666
C       -1.281023476   4.079155561   2.262057177
C       -1.765725687   2.887550924   2.767869274
C       -1.459920477   1.636116389   2.165209007
C       -3.291665860  -2.431814543   1.209661144
C       -2.901016528  -3.150265815   2.321123763
C       -1.541427884  -2.921585279   2.789966132
C       -0.717046139  -2.072355812   2.153080503
C       -2.091650979   0.826286923  -2.190415449
C       -4.065211795  -0.767743526  -1.192884478
C       -4.312327384  -0.011603100  -2.297018671
C       -3.322995443   0.835097585  -2.778996014
H        1.431865018   1.122408079   2.671435074
H        3.629028590   0.704864143   3.650333863
H        5.062926810  -1.207590910   2.856763316
H        4.374362516  -2.491570988   0.977363520
H        3.708465290  -3.448298310  -0.818264753
H        2.696954994  -4.472019645  -2.895255692
H        0.442694365  -3.716573818  -3.661809174
H       -0.668873250  -1.879834105  -2.459944086
H        1.794040901   0.346665865  -2.442707945
H        3.059327812   2.255347185  -3.635976597
H        2.597070708   4.583036794  -2.800367168
H        1.247547545   4.911510175  -0.796727793
H       -0.071540032   4.976129097   0.720397110
H       -1.577697275   5.020420052   2.719482459
H       -2.421468778   2.909022813   3.675960081
H       -1.878814762   0.689390749   2.551324145
H       -4.297284199  -2.454313484   0.818953125
H       -3.573645031  -3.889866841   2.798135672
H       -1.300917866  -3.548977149   3.681054004
H        0.299427149  -1.951272556   2.555507925
H       -1.243622489   1.527505553  -2.395551124
H       -4.821456781  -1.510769305  -0.886673858
H       -5.330150418  -0.105584362  -2.789578600
H       -3.542095709   1.478826077  -3.661301817


     kinetic energy (Ekin) =     0.12719255 Ry
     temperature           =   223.13435504 K 
     Ekin + Etot (const)   =  -544.54339998 Ry
     Message from routine dynamics:
     Total linear momentum <> 0

     Linear momentum :   -0.1093427514   -0.1621197753   -0.5478444927

     Writing output data file x0.save

     second order wave-functions extrapolation
     second order charge density extrapolation

     Check: negative/imaginary core charge=   -0.000003    0.000000

     negative rho (up, down):  5.657E-06 0.000E+00

     total cpu time spent up to now is      277.0 secs

     Self-consistent Calculation

     iteration #  1     ecut=    30.00 Ry     beta= 0.30
     Davidson diagonalization with overlap
     ethr =  1.00E-06,  avg # of iterations =  5.0

     negative rho (up, down):  5.665E-06 0.000E+00

     total cpu time spent up to now is      287.4 secs

     total energy              =    -544.66932963 Ry
     Harris-Foulkes estimate   =    -544.67044284 Ry
     estimated scf accuracy    <       0.00328626 Ry

     iteration #  2     ecut=    30.00 Ry     beta= 0.30
     Davidson diagonalization with overlap
     ethr =  1.83E-06,  avg # of iterations =  3.0

     negative rho (up, down):  5.792E-06 0.000E+00

     total cpu time spent up to now is      294.5 secs

     total energy              =    -544.66948087 Ry
     Harris-Foulkes estimate   =    -544.66975317 Ry
     estimated scf accuracy    <       0.00102239 Ry

     iteration #  3     ecut=    30.00 Ry     beta= 0.30
     Davidson diagonalization with overlap
     ethr =  5.68E-07,  avg # of iterations =  3.0

     negative rho (up, down):  6.092E-06 0.000E+00

     total cpu time spent up to now is      301.7 secs

     total energy              =    -544.66958007 Ry
     Harris-Foulkes estimate   =    -544.66965133 Ry
     estimated scf accuracy    <       0.00033364 Ry

     iteration #  4     ecut=    30.00 Ry     beta= 0.30
     Davidson diagonalization with overlap
     ethr =  1.85E-07,  avg # of iterations =  4.0

     negative rho (up, down):  5.945E-06 0.000E+00

     total cpu time spent up to now is      309.4 secs

     End of self-consistent calculation

          k = 0.0000 0.0000 0.0000 ( 10540 PWs)   bands (ev):

   -20.8585 -20.7201 -20.6315 -17.4517 -17.4049 -17.3238 -17.0160 -16.7408
   -16.5788 -16.0512 -16.0198 -15.9665 -14.5638 -14.4127 -14.3542 -14.2867
   -14.2303 -14.1425 -12.7573 -12.5817 -12.4797 -12.4394 -12.1510 -12.1320
   -11.0241 -10.7968 -10.6981 -10.6116 -10.5990 -10.4659  -9.9174  -9.4769
    -9.4140  -8.7786  -8.7173  -8.6442  -8.5567  -8.4062  -8.2954  -8.2111
    -7.9289  -7.8108  -7.7154  -7.2585  -7.2051  -7.1214  -6.9891  -6.9423
    -6.9028  -6.8254  -6.7103  -6.7022  -6.6304  -6.4833  -6.3954  -6.2249
    -6.1589  -5.9468  -5.6959  -5.6679  -5.4277  -5.3251  -5.2740  -5.2471
    -5.1792  -5.1181  -4.7175  -4.6633  -4.5940  -4.3107  -4.2557  -4.1592
    -4.0696  -4.0010  -3.9325  -3.7403  -3.6009  -3.5772  -2.8673  -2.8125
    -2.6843  -2.6001  -2.5416  -2.3362  -2.2182  -2.0853  -1.9737  -1.0868
    -1.0533  -0.8587   1.2045   1.3299   1.4503   1.4869   1.7676   1.9185
     2.2865   2.8267   3.0238   3.1733   3.2640   3.2694   3.4307   3.5413
     3.5522   3.6650   3.7028   3.9488

     the Fermi energy is     0.2598 ev

!    total energy              =    -544.66962695 Ry
     Harris-Foulkes estimate   =    -544.66966340 Ry
     estimated scf accuracy    <       0.00009688 Ry

     convergence has been achieved in   4 iterations

     negative rho (up, down):  5.945E-06 0.000E+00

     Forces acting on atoms (cartesian axes, Ry/au):

     atom    1 type  3   force =     0.00669410   -0.00025250   -0.01241163
     atom    2 type  4   force =    -0.03184463    0.04142303    0.02288491
     atom    3 type  4   force =     0.04641890    0.01563694   -0.02632503
     atom    4 type  1   force =     0.01767150    0.00175526    0.00275363
     atom    5 type  1   force =    -0.01050914    0.03275926    0.03261555
     atom    6 type  1   force =     0.02957567   -0.01140328    0.01153883
     atom    7 type  1   force =    -0.00962606   -0.02832019   -0.05598233
     atom    8 type  4   force =    -0.04384508    0.00517116    0.09346797
     atom    9 type  1   force =    -0.01192184    0.01424132   -0.02998443
     atom   10 type  1   force =     0.01967551   -0.03455104   -0.03949316
     atom   11 type  1   force =    -0.01936579   -0.07409771    0.00289260
     atom   12 type  1   force =    -0.02429474   -0.02487992    0.06873341
     atom   13 type  1   force =    -0.01239507   -0.00120524   -0.00668164
     atom   14 type  1   force =    -0.01170197   -0.00787482    0.00456669
     atom   15 type  1   force =    -0.04990638    0.00768940   -0.02831889
     atom   16 type  1   force =     0.02197115    0.00705190    0.03126198
     atom   17 type  1   force =     0.02009957   -0.01464226    0.03219715
     atom   18 type  1   force =     0.02969563    0.02804194    0.05548682
     atom   19 type  1   force =    -0.02303770    0.04414176   -0.04656921
     atom   20 type  1   force =    -0.01431589   -0.01567066   -0.02298563
     atom   21 type  1   force =    -0.01163703   -0.00843968   -0.01288980
     atom   22 type  1   force =    -0.02383576   -0.04921237   -0.05164278
     atom   23 type  1   force =     0.04740639    0.03882610   -0.01326802
     atom   24 type  1   force =    -0.03107921   -0.11227945    0.00273846
     atom   25 type  1   force =     0.01793129    0.04181335    0.01508492
     atom   26 type  1   force =     0.02326370    0.07719853   -0.04846010
     atom   27 type  1   force =    -0.02092417    0.00788983    0.04207572
     atom   28 type  1   force =    -0.02750700   -0.05942437    0.02783076
     atom   29 type  1   force =    -0.00438145    0.03606550    0.00366033
     atom   30 type  1   force =     0.01845143    0.01616872   -0.01088512
     atom   31 type  1   force =     0.04819946    0.01458075    0.00831256
     atom   32 type  1   force =    -0.12987761   -0.09286709    0.03862374
     atom   33 type  1   force =     0.07579129    0.02524518    0.01690601
     atom   34 type  1   force =     0.04261952    0.02919705    0.04435376
     atom   35 type  1   force =    -0.01482492   -0.05781711   -0.00392535
     atom   36 type  1   force =    -0.06563451    0.00628532   -0.03586107
     atom   37 type  1   force =    -0.02408740    0.02977535   -0.06533487
     atom   38 type  2   force =     0.02442306   -0.00730989   -0.01685647
     atom   39 type  2   force =     0.01767908    0.00872850    0.02778589
     atom   40 type  2   force =    -0.00284969    0.00366757   -0.01187211
     atom   41 type  2   force =    -0.01337379   -0.00669073   -0.01915124
     atom   42 type  2   force =    -0.01055883   -0.00187927   -0.00867301
     atom   43 type  2   force =     0.01669299    0.01311006   -0.00563281
     atom   44 type  2   force =     0.00942807   -0.00261225    0.00592311
     atom   45 type  2   force =     0.01227086    0.00054315    0.00394072
     atom   46 type  2   force =     0.02553654    0.01977021   -0.00406957
     atom   47 type  2   force =    -0.00951139    0.00093826    0.00360408
     atom   48 type  2   force =     0.02353162    0.00628821   -0.01987848
     atom   49 type  2   force =    -0.00829486    0.00104132    0.00062052
     atom   50 type  2   force =    -0.00756874   -0.00614089    0.02190133
     atom   51 type  2   force =     0.00301838    0.00014184   -0.00195738
     atom   52 type  2   force =     0.01470466   -0.00204145   -0.02466367
     atom   53 type  2   force =     0.00521686    0.01725940   -0.00133417
     atom   54 type  2   force =    -0.01123360   -0.01609226   -0.00198327
     atom   55 type  2   force =     0.01320595    0.01708007   -0.00357772
     atom   56 type  2   force =     0.01805810    0.02663290   -0.01783049
     atom   57 type  2   force =    -0.00482616    0.00214573   -0.00361379
     atom   58 type  2   force =    -0.03154838   -0.02104431   -0.01370458
     atom   59 type  2   force =     0.01074218    0.01785080    0.00693025
     atom   60 type  2   force =     0.04445149    0.01351285    0.01651824
     atom   61 type  2   force =     0.01189384   -0.01291979    0.02060788

     Total force =     0.416774     Total SCF correction =     0.012725

     Entering Dynamics:    iteration =     6
                           time      =   0.0060 pico-seconds


     Andersen thermostat:    7 collisions

ATOMIC_POSITIONS (angstrom)
Ir      -0.007751626  -0.000238652  -0.005649194
N        0.889998642  -1.653478685  -1.088462628
N       -1.855021319   0.067237435  -1.102683546
C       -0.633482349   1.615337157   1.032209405
C        1.708045981  -0.284185661   1.027881587
C        2.065909742  -2.076292714  -0.589651450
C        2.542009939  -1.323312731   0.584176856
N        0.955529122   1.596786009  -1.133793685
C       -1.087736225  -1.330293732   1.031428917
C        0.740999998   2.842123739  -0.569819886
C       -0.092962083   2.879728668   0.577033934
C       -2.785577420  -0.778041228  -0.643388161
C       -2.397822105  -1.550002269   0.558034223
C        2.143075689   0.417145638   2.182193261
C        3.373389437   0.123656191   2.790961183
C        4.158681063  -0.914720998   2.304042327
C        3.750161916  -1.629331091   1.205522849
C        2.733450289  -3.148008060  -1.225990716
C        2.173867044  -3.746940444  -2.304899344
C        0.943930493  -3.287915357  -2.780308976
C        0.311752671  -2.250263700  -2.134319115
C        1.815179701   1.402688140  -2.108825584
[...]
C        2.526404211  -1.272067218   0.624550861
N        0.919922703   1.544739481  -1.098667835
C       -1.091138788  -1.423447134   0.973530525
C        0.832573793   2.783705469  -0.584183180
C       -0.084958181   2.851594016   0.619505346
C       -2.773271819  -0.776529199  -0.727779772
C       -2.422876542  -1.631457325   0.440869713
C        2.024490647   0.450400563   2.264241238
C        3.266802431   0.139483428   2.903082656
C        4.060625817  -0.901340477   2.501675245
C        3.684493529  -1.666139224   1.439229263
C        2.831437243  -3.036883842  -1.223797145
C        2.298859482  -3.594287414  -2.424208790
C        0.990008265  -3.213219811  -2.787925994
C        0.301325019  -2.182589292  -2.117387795
C        1.724352078   1.372848042  -2.191089834
C        2.434679923   2.359337219  -2.753365159
C        2.369617896   3.664623335  -2.270308003
C        1.554341925   3.904825843  -1.150925151
C       -0.477054766   4.033705641   1.271348010
C       -1.346666033   3.961213065   2.318687895
C       -1.908536511   2.763102169   2.725983011
C       -1.562210552   1.595719521   2.013704434
C       -3.297671416  -2.424307165   1.083634323
C       -2.920077361  -3.113910699   2.227151169
C       -1.657753712  -2.952145783   2.816741859
C       -0.725595562  -2.119667975   2.177688318
C       -2.096851003   0.901344511  -2.214955373
C       -4.075393387  -0.808840060  -1.362981753
C       -4.364896216   0.040683313  -2.397248110
C       -3.309884239   0.847238346  -2.854410746
H        1.463601953   1.329673942   2.497600694
H        3.590558406   0.755206622   3.786687995
H        4.921893648  -1.111126823   3.130436619
H        4.291400852  -2.488028690   1.069984230
H        3.798100194  -3.411193296  -0.873987107
H        2.803241274  -4.311062835  -3.063367975
H        0.637203743  -3.647625022  -3.694939267
H       -0.636440893  -1.862913230  -2.376473650
H        1.613853971   0.367028639  -2.596401069
H        3.108384743   2.133959348  -3.640038889
H        2.985897425   4.440812854  -2.688882269
H        1.618273330   4.792059024  -0.551206995
H       -0.312653043   5.015910067   0.902488782
H       -1.433049589   4.853773205   2.906996635
H       -2.704764216   2.746256458   3.463696334
H       -1.826714132   0.643318775   2.387249223
H       -4.296415633  -2.502234032   0.793014172
H       -3.582916518  -3.844915469   2.681232934
H       -1.366846608  -3.510613606   3.760549293
H        0.289225807  -1.857219891   2.567880214
H       -1.343654091   1.579539087  -2.596139006
H       -4.901783283  -1.396689561  -0.877647439
H       -5.294309037   0.110762669  -2.871283880
H       -3.507956115   1.480225894  -3.722966427


     kinetic energy (Ekin) =     0.14840835 Ry
     temperature           =   260.35330859 K 
     Ekin + Etot (const)   =  -544.47398346 Ry
     Message from routine dynamics:
     Total linear momentum <> 0

     Linear momentum :   -0.6784778736   -0.4040360339    0.5252508517

     Writing output data file x0.save

     second order wave-functions extrapolation
     second order charge density extrapolation

     Check: negative/imaginary core charge=   -0.000003    0.000000

     negative rho (up, down):  3.766E-06 0.000E+00

     total cpu time spent up to now is     4343.4 secs

     Self-consistent Calculation

     iteration #  1     ecut=    30.00 Ry     beta= 0.30
     Davidson diagonalization with overlap
     ethr =  1.00E-06,  avg # of iterations =  5.0

     negative rho (up, down):  3.849E-06 0.000E+00

     total cpu time spent up to now is     4353.5 secs

     total energy              =    -544.62351818 Ry
     Harris-Foulkes estimate   =    -544.62423735 Ry
     estimated scf accuracy    <       0.00220507 Ry

     iteration #  2     ecut=    30.00 Ry     beta= 0.30
     Davidson diagonalization with overlap
     ethr =  1.23E-06,  avg # of iterations =  1.0

     negative rho (up, down):  4.250E-06 0.000E+00

     total cpu time spent up to now is     4360.2 secs

     total energy              =    -544.62348356 Ry
     Harris-Foulkes estimate   =    -544.62368094 Ry
     estimated scf accuracy    <       0.00063740 Ry

     iteration #  3     ecut=    30.00 Ry     beta= 0.30
     Davidson diagonalization with overlap
     ethr =  3.54E-07,  avg # of iterations =  4.0

     negative rho (up, down):  3.981E-06 0.000E+00

     total cpu time spent up to now is     4368.1 secs

     total energy              =    -544.62365324 Ry
     Harris-Foulkes estimate   =    -544.62370396 Ry
     estimated scf accuracy    <       0.00025448 Ry

     iteration #  4     ecut=    30.00 Ry     beta= 0.30
     Davidson diagonalization with overlap
     ethr =  1.41E-07,  avg # of iterations =  2.0

     negative rho (up, down):  4.078E-06 0.000E+00

     total cpu time spent up to now is     4374.5 secs

     End of self-consistent calculation

          k = 0.0000 0.0000 0.0000 ( 10540 PWs)   bands (ev):

   -20.6392 -20.5366 -20.5258 -17.4195 -17.2860 -17.1760 -16.7524 -16.7030
   -16.5350 -16.1398 -15.7653 -15.7396 -14.6343 -14.4357 -14.3139 -14.2569
   -14.1193 -14.0205 -12.7436 -12.4412 -12.4304 -12.4006 -12.1633 -12.0972
   -11.1068 -10.7474 -10.7007 -10.5411 -10.4953 -10.3574  -9.8509  -9.5275
    -9.4628  -8.7514  -8.6583  -8.5703  -8.5658  -8.4265  -8.3476  -8.2963
    -7.9520  -7.8392  -7.6598  -7.3325  -7.1953  -7.0824  -7.0119  -6.9892
    -6.9331  -6.8459  -6.7939  -6.7067  -6.6140  -6.5083  -6.4770  -6.2731
    -6.2109  -5.8175  -5.7185  -5.5369  -5.4182  -5.3703  -5.2741  -5.1944
    -5.1336  -5.0445  -4.8186  -4.6956  -4.6186  -4.4761  -4.2711  -4.1334
    -4.0870  -3.9945  -3.9376  -3.7647  -3.4751  -3.3542  -2.8749  -2.8073
    -2.6028  -2.5719  -2.3964  -2.3038  -2.1350  -2.0392  -1.8880  -1.1195
    -0.9392  -0.8284   1.1482   1.2301   1.3515   1.4274   1.6225   1.7634
     2.2679   2.8425   2.9218   3.1994   3.2483   3.2849   3.3698   3.5162
     3.5929   3.6201   3.7183   3.8844

     the Fermi energy is     0.2396 ev

!    total energy              =    -544.62364439 Ry
     Harris-Foulkes estimate   =    -544.62367111 Ry
     estimated scf accuracy    <       0.00008623 Ry

     convergence has been achieved in   4 iterations

     negative rho (up, down):  4.078E-06 0.000E+00

     Forces acting on atoms (cartesian axes, Ry/au):

     atom    1 type  3   force =     0.01654845   -0.05162718   -0.02544520
     atom    2 type  4   force =    -0.04331532    0.03561619    0.01070362
     atom    3 type  4   force =     0.05379340    0.06740746   -0.04218466
     atom    4 type  1   force =     0.00362388    0.05026395   -0.00097407
     atom    5 type  1   force =    -0.06810295   -0.03646232   -0.09982021
     atom    6 type  1   force =    -0.02121750   -0.00416542   -0.00498330
     atom    7 type  1   force =     0.07750675   -0.03676615    0.08183961
     atom    8 type  4   force =     0.03302539    0.01358573   -0.02592774
     atom    9 type  1   force =    -0.00760814    0.00205721    0.02907832
     atom   10 type  1   force =    -0.02199560    0.06902959    0.04563538
     atom   11 type  1   force =     0.02855452    0.00150984   -0.05804204
     atom   12 type  1   force =    -0.08626992   -0.05884573    0.01497437
     atom   13 type  1   force =     0.08923069    0.08937290   -0.04437237
     atom   14 type  1   force =     0.10873812   -0.00440699    0.03616310
     atom   15 type  1   force =    -0.06749888    0.07959639    0.03703030
     atom   16 type  1   force =     0.01520964   -0.01307433    0.03508824
     atom   17 type  1   force =    -0.05923499    0.00952595   -0.10406301
     atom   18 type  1   force =     0.00426448   -0.02783142   -0.05510731
     atom   19 type  1   force =    -0.03974056    0.05901011    0.05914136
     atom   20 type  1   force =     0.02948641    0.02583169    0.00290546
     atom   21 type  1   force =     0.17240610   -0.08994405    0.02552593
     atom   22 type  1   force =    -0.07207976   -0.06506199    0.04070894
     atom   23 type  1   force =     0.07142216    0.03410223   -0.09108154
     atom   24 type  1   force =    -0.02956508   -0.00903638    0.06067197
     atom   25 type  1   force =     0.00625380   -0.08736102   -0.00308277
     atom   26 type  1   force =     0.00570716   -0.05110241   -0.03406732
     atom   27 type  1   force =    -0.00461452    0.00119801    0.04384257
     atom   28 type  1   force =     0.00345347   -0.03251667   -0.04034819
     atom   29 type  1   force =     0.00739973    0.04199172    0.04319555
     atom   30 type  1   force =     0.00894396   -0.05510570    0.06483578
     atom   31 type  1   force =     0.01365228   -0.01681037    0.02939866
     atom   32 type  1   force =     0.02987740   -0.00697710    0.00323700
     atom   33 type  1   force =    -0.00200190    0.03527235   -0.03237461
     atom   34 type  1   force =    -0.01857577   -0.05134114    0.02091790
     atom   35 type  1   force =    -0.00687379   -0.01499589    0.06372265
     atom   36 type  1   force =     0.08872763   -0.00276053    0.02050253
     atom   37 type  1   force =    -0.02227664    0.02049907   -0.01877052
     atom   38 type  2   force =    -0.01877728    0.01950403    0.02617155
     atom   39 type  2   force =    -0.01049877   -0.01699708   -0.02658191
     atom   40 type  2   force =     0.01451023   -0.01200361   -0.00808634
     atom   41 type  2   force =     0.00274066   -0.01042196    0.00780643
     atom   42 type  2   force =    -0.00033373    0.00811868    0.00450390
     atom   43 type  2   force =     0.01154147    0.00615685    0.00615159
     atom   44 type  2   force =    -0.03168208   -0.01291433   -0.02893966
     atom   45 type  2   force =    -0.09487677    0.03670940   -0.02490877
     atom   46 type  2   force =     0.02219683   -0.00338779   -0.00607703
     atom   47 type  2   force =    -0.03287249    0.00691038    0.03530375
     atom   48 type  2   force =     0.01056140    0.00320400   -0.00525858
     atom   49 type  2   force =    -0.01004006    0.03057334   -0.00065856
     atom   50 type  2   force =     0.03687823    0.03953105   -0.01761149
     atom   51 type  2   force =    -0.02847735    0.02419102    0.00924848
     atom   52 type  2   force =     0.00174254   -0.00404318    0.01904113
     atom   53 type  2   force =    -0.03924485   -0.04384118    0.01609956
     atom   54 type  2   force =    -0.06366250   -0.01069925   -0.03058449
     atom   55 type  2   force =    -0.01604379    0.00136548    0.00374259
     atom   56 type  2   force =    -0.01658100    0.02390296   -0.03744749
     atom   57 type  2   force =    -0.03062995   -0.02089947    0.00176836
     atom   58 type  2   force =     0.01957134    0.00015084    0.01284330
     atom   59 type  2   force =     0.03307608    0.01217687   -0.02082480
     atom   60 type  2   force =    -0.06479296   -0.00385400   -0.02499836
     atom   61 type  2   force =     0.00884071    0.00688937    0.00082245

     Total force =     0.557854     Total SCF correction =     0.010902

     Entering Dynamics:    iteration =   100
                           time      =   0.1000 pico-seconds


     Andersen thermostat:    6 collisions

ATOMIC_POSITIONS (angstrom)
Ir      -0.000714537   0.008313410   0.001527419
N        0.928906618  -1.617664363  -1.070640908
N       -1.837458853   0.044363838  -1.157447709
C       -0.616674257   1.581992729   1.004436081
C        1.696704932  -0.239281058   1.139556125
C        2.135900084  -2.000478054  -0.571936934
C        2.525663915  -1.273881684   0.624095646
N        0.922010454   1.548096513  -1.099818960
C       -1.088210643  -1.423730558   0.969103274
C        0.833552079   2.782812053  -0.576998323
C       -0.080924527   2.847421354   0.620207633
C       -2.773524430  -0.773360858  -0.725793275
C       -2.414354763  -1.636277852   0.444487060
C        2.021566531   0.449234265   2.267299429
C        3.262910832   0.133809448   2.899680860
C        4.058661164  -0.899443618   2.505279208
C        3.681710346  -1.662478387   1.442930665
C        2.831427744  -3.047725034  -1.219704251
C        2.310619122  -3.594689596  -2.422465059
C        0.983453772  -3.207290256  -2.793579758
C        0.305929312  -2.184452282  -2.120606805
C        1.725489888   1.376870402  -2.195832146
C        2.438760093   2.365406045  -2.755378180
C        2.371453035   3.665156320  -2.272173281
C        1.562601676   3.900629713  -1.147822032
C       -0.482421030   4.032643585   1.274820028
C       -1.349145591   3.957758815   2.317645328
C       -1.913099537   2.757789940   2.721947537
C       -1.559229858   1.596867657   2.014022631
C       -3.316082083  -2.426685556   1.085171542
C       -2.919634534  -3.117586476   2.226479815
C       -1.656470436  -2.950732706   2.810465967
C       -0.726796329  -2.119806394   2.177461077
C       -2.098482557   0.897855580  -2.215047416
C       -4.081771632  -0.808580601  -1.361673032
C       -4.359863337   0.041573715  -2.395898829
C       -3.310527089   0.846947950  -2.856727288
H        1.435352235   1.337717825   2.477216223
H        3.610188653   0.741272551   3.778309836
H        4.933079357  -1.119298681   3.133659714
H        4.298762573  -2.515188424   1.081415938
H        3.792039486  -3.399853965  -0.859684963
H        2.805400257  -4.288473730  -3.087122517
H        0.614667629  -3.656113973  -3.693061355
H       -0.634452472  -1.858052193  -2.360718432
H        1.642218041   0.340307702  -2.610207836
H        3.098214889   2.129697528  -3.630479100
H        3.004598764   4.450118896  -2.703526747
H        1.625122389   4.815811375  -0.541019919
H       -0.295344612   5.030055515   0.901008522
H       -1.434464481   4.845876758   2.896080304
H       -2.691267413   2.770682795   3.434617579
H       -1.838039997   0.609803695   2.376069650
H       -4.289951355  -2.490929755   0.778742216
H       -3.587611926  -3.839478557   2.685675148
H       -1.379912680  -3.505865655   3.752556447
H        0.275112806  -1.868115738   2.543250414
H       -1.324882966   1.602825832  -2.605383673
H       -4.900059152  -1.396674372  -0.875383925
H       -5.299386596   0.128270093  -2.909993370
H       -3.500986616   1.470274513  -3.702634921


     kinetic energy (Ekin) =     0.14897425 Ry
     temperature           =   261.34606602 K 
     Ekin + Etot (const)   =  -544.47467014 Ry
     Message from routine dynamics:
     Total linear momentum <> 0

     Linear momentum :    0.1940130962   -0.1064505472   -0.0944843594

     The maximum number of steps has been reached.

     End of molecular dynamics calculation

     diffusion coefficients :
     atom     1   D =       0.00000002 cm^2/s
     atom     2   D =       0.00000062 cm^2/s
     atom     3   D =       0.00000077 cm^2/s
     atom     4   D =       0.00000046 cm^2/s
     atom     5   D =       0.00000220 cm^2/s
     atom     6   D =       0.00000168 cm^2/s
     atom     7   D =       0.00000115 cm^2/s
     atom     8   D =       0.00000051 cm^2/s
     atom     9   D =       0.00000247 cm^2/s
     atom    10   D =       0.00000135 cm^2/s
     atom    11   D =       0.00000088 cm^2/s
     atom    12   D =       0.00000282 cm^2/s
     atom    13   D =       0.00000396 cm^2/s
     atom    14   D =       0.00000463 cm^2/s
     atom    15   D =       0.00000351 cm^2/s
     atom    16   D =       0.00000869 cm^2/s
     atom    17   D =       0.00001163 cm^2/s
     atom    18   D =       0.00000340 cm^2/s
     atom    19   D =       0.00001019 cm^2/s
     atom    20   D =       0.00000178 cm^2/s
     atom    21   D =       0.00000069 cm^2/s
     atom    22   D =       0.00000089 cm^2/s
     atom    23   D =       0.00000201 cm^2/s
     atom    24   D =       0.00000793 cm^2/s
     atom    25   D =       0.00000814 cm^2/s
     atom    26   D =       0.00000144 cm^2/s
     atom    27   D =       0.00000269 cm^2/s
     atom    28   D =       0.00000607 cm^2/s
     atom    29   D =       0.00000750 cm^2/s
     atom    30   D =       0.00000195 cm^2/s
     atom    31   D =       0.00000129 cm^2/s
     atom    32   D =       0.00000088 cm^2/s
     atom    33   D =       0.00000059 cm^2/s
     atom    34   D =       0.00000150 cm^2/s
     atom    35   D =       0.00000378 cm^2/s
     atom    36   D =       0.00000164 cm^2/s
     atom    37   D =       0.00000071 cm^2/s
     atom    38   D =       0.00000620 cm^2/s
     atom    39   D =       0.00000370 cm^2/s
     atom    40   D =       0.00002453 cm^2/s
     atom    41   D =       0.00001441 cm^2/s
     atom    42   D =       0.00000409 cm^2/s
     atom    43   D =       0.00003337 cm^2/s
     atom    44   D =       0.00000668 cm^2/s
     atom    45   D =       0.00000226 cm^2/s
     atom    46   D =       0.00001578 cm^2/s
     atom    47   D =       0.00000399 cm^2/s
     atom    48   D =       0.00002692 cm^2/s
     atom    49   D =       0.00004759 cm^2/s
     atom    50   D =       0.00000857 cm^2/s
     atom    51   D =       0.00000751 cm^2/s
     atom    52   D =       0.00002341 cm^2/s
     atom    53   D =       0.00000889 cm^2/s
     atom    54   D =       0.00000154 cm^2/s
     atom    55   D =       0.00000198 cm^2/s
     atom    56   D =       0.00000394 cm^2/s
     atom    57   D =       0.00000079 cm^2/s
     atom    58   D =       0.00000601 cm^2/s
     atom    59   D =       0.00000145 cm^2/s
     atom    60   D =       0.00000603 cm^2/s
     atom    61   D =       0.00000071 cm^2/s

     < D > =       0.00000611 cm^2/s

     Writing output data file x0.save
 
     init_run     :      6.40s CPU      6.86s WALL (       1 calls)
     electrons    :   3104.70s CPU   3471.58s WALL (     100 calls)
     update_pot   :    221.30s CPU    284.40s WALL (      99 calls)
     forces       :    404.63s CPU    458.29s WALL (     100 calls)

     Called by init_run:
     wfcinit      :      1.96s CPU      1.99s WALL (       1 calls)
     potinit      :      1.42s CPU      1.47s WALL (       1 calls)

     Called by electrons:
     c_bands      :   1469.05s CPU   1490.49s WALL (     442 calls)
     sum_band     :    758.81s CPU    920.19s WALL (     442 calls)
     v_of_rho     :    525.64s CPU    544.21s WALL (     542 calls)
     newd         :    439.28s CPU    632.34s WALL (     542 calls)
     mix_rho      :     48.19s CPU     48.22s WALL (     442 calls)

     Called by c_bands:
     init_us_2    :     16.09s CPU     16.15s WALL (     983 calls)
     regterg      :   1418.94s CPU   1440.28s WALL (     442 calls)

     Called by sum_band:
     sum_band:bec :      0.04s CPU      0.04s WALL (     442 calls)
     addusdens    :    451.85s CPU    612.63s WALL (     442 calls)

     Called by *egterg:
     h_psi        :   1121.65s CPU   1122.14s WALL (    2237 calls)
     s_psi        :     77.01s CPU     77.02s WALL (    2335 calls)
     g_psi        :      5.49s CPU      5.50s WALL (    1794 calls)
     rdiaghg      :     31.66s CPU     31.68s WALL (    2137 calls)

     Called by h_psi:
     h_psi:pot    :   1113.47s CPU   1113.94s WALL (    2237 calls)
     h_psi:calbec :     70.77s CPU     70.78s WALL (    2237 calls)
     vloc_psi     :    970.89s CPU    971.34s WALL (    2237 calls)
     add_vuspsi   :     71.80s CPU     71.82s WALL (    2237 calls)

     General routines
     calbec       :    120.01s CPU    120.04s WALL (    3275 calls)
     fft          :    536.60s CPU    536.72s WALL (    9471 calls)
     ffts         :      9.78s CPU      9.78s WALL (     984 calls)
     fftw         :    923.73s CPU    924.03s WALL (  166486 calls)
     interpolate  :     73.19s CPU     73.65s WALL (     984 calls)
     davcio       :      0.05s CPU      2.63s WALL (     392 calls)
 
     Parallel routines
 
     PWSCF        :     1h 4m CPU        1h12m WALL

 
   This run was terminated on:  12: 3:59  22Jun2021            

=------------------------------------------------------------------------------=
   JOB DONE.
=------------------------------------------------------------------------------=
