
     Program PWSCF v.6.4.1 starts on 29May2021 at  0:55:37 

     This program is part of the open-source Quantum ESPRESSO suite
     for quantum simulation of materials; please cite
         "P. Giannozzi et al., J. Phys.:Condens. Matter 21 395502 (2009);
         "P. Giannozzi et al., J. Phys.:Condens. Matter 29 465901 (2017);
          URL http://www.quantum-espresso.org", 
     in publications or presentations arising from this work. More details at
     http://www.quantum-espresso.org/quote

     Parallel version (MPI & OpenMP), running on      32 processor cores
     Number of MPI processes:                32
     Threads/MPI process:                     1

     MPI processes distributed on     1 nodes
     R & G space division:  proc/nbgrp/npool/nimage =      32
     Reading input from ZnTHPP_scf.in
Warning: card &IONS ignored
Warning: card / ignored
Warning: card &CELL ignored
Warning: card / ignored

     Current dimensions of program PWSCF are:
     Max number of different atomic species (ntypx) = 10
     Max number of k-points (npk) =  40000
     Max angular momentum in pseudopotentials (lmaxx) =  3
               file C.pbe-n-kjpaw_psl.1.0.0.UPF: wavefunction(s)  2S 2P renormalized
               file O.pbe-n-kjpaw_psl.0.1.UPF: wavefunction(s)  2P renormalized

     gamma-point specific algorithms are used

     Subspace diagonalization in iterative solution of the eigenvalue problem:
     one sub-group per band group will be used
     scalapack distributed-memory algorithm (size of sub-group:  4*  4 procs)

 
     Parallelization info
     --------------------
     sticks:   dense  smooth     PW     G-vecs:    dense   smooth      PW
     Min        3196    1278    318               769256   194594   24318
     Max        3198    1282    320               769266   194604   24332
     Sum      102325   40945  10229             24616397  6227117  778439
 


     bravais-lattice index     =            0
     lattice parameter (alat)  =      56.6918  a.u.
     unit-cell volume          =  182205.0337 (a.u.)^3
     number of atoms/cell      =           81
     number of atomic types    =            5
     number of electrons       =       268.00
     number of Kohn-Sham states=          172
     kinetic-energy cutoff     =      40.0000  Ry
     charge density cutoff     =     400.0000  Ry
     convergence threshold     =      1.0E-10
     mixing beta               =       0.7000
     number of iterations used =            8  plain     mixing
     Exchange-correlation      = SLA PW PBX PBC ( 1  4  3  4 0 0)

     celldm(1)=  56.691784  celldm(2)=   0.000000  celldm(3)=   0.000000
     celldm(4)=   0.000000  celldm(5)=   0.000000  celldm(6)=   0.000000

     crystal axes: (cart. coord. in units of alat)
               a(1) = (   1.000000   0.000000   0.000000 )  
               a(2) = (   0.000000   1.000000   0.000000 )  
               a(3) = (   0.000000   0.000000   1.000000 )  

     reciprocal axes: (cart. coord. in units 2 pi/alat)
               b(1) = (  1.000000  0.000000  0.000000 )  
               b(2) = (  0.000000  1.000000  0.000000 )  
               b(3) = (  0.000000  0.000000  1.000000 )  


     PseudoPot. # 1 for C  read from file:
     /u/fzheng/0.qe_calculations/pseudos/SSSP_efficiency_pseudos/C.pbe-n-kjpaw_psl.1.0.0.UPF
     MD5 check sum: 5d2aebdfa2cae82b50a7e79e9516da0f
     Pseudo is Projector augmented-wave + core cor, Zval =  4.0
     Generated using "atomic" code by A. Dal Corso v.5.1
     Shape of augmentation charge: PSQ
     Using radial grid of 1073 points,  4 beta functions with: 
                l(1) =   0
                l(2) =   0
                l(3) =   1
                l(4) =   1
     Q(r) pseudized with 0 coefficients 


     PseudoPot. # 2 for N  read from file:
     /u/fzheng/0.qe_calculations/pseudos/SSSP_efficiency_pseudos/N.pbe-n-radius_5.UPF
     MD5 check sum: 16739722b17309cd8fe442a2ace49922
     Pseudo is Ultrasoft + core correction, Zval =  5.0
     Generated using "atomic" code by A. Dal Corso v.5.1
     Using radial grid of 1085 points,  4 beta functions with: 
                l(1) =   0
                l(2) =   0
                l(3) =   1
                l(4) =   1
     Q(r) pseudized with 0 coefficients 


     PseudoPot. # 3 for H  read from file:
     /u/fzheng/0.qe_calculations/pseudos/SSSP_efficiency_pseudos/H.pbe-rrkjus_psl.1.0.0.UPF
     MD5 check sum: f52b6d4d1c606e5624b1dc7b2218f220
     Pseudo is Ultrasoft, Zval =  1.0
     Generated using "atomic" code by A. Dal Corso v.5.1
     Using radial grid of  929 points,  2 beta functions with: 
                l(1) =   0
                l(2) =   0
     Q(r) pseudized with 0 coefficients 


     PseudoPot. # 4 for Zn read from file:
     /u/fzheng/0.qe_calculations/pseudos/SSSP_efficiency_pseudos/Zn_pbe_v1.uspp.F.UPF
     MD5 check sum: df62231357ef9e81f77b2b3087fa5675
     Pseudo is Ultrasoft, Zval = 20.0
     Generated by new atomic code, or converted to UPF format
     Using radial grid of  943 points,  6 beta functions with: 
                l(1) =   0
                l(2) =   0
                l(3) =   1
                l(4) =   1
                l(5) =   2
                l(6) =   2
     Q(r) pseudized with  8 coefficients,  rinner =    1.100   1.100   1.100
                                                       1.100   1.100

     PseudoPot. # 5 for O  read from file:
     /u/fzheng/0.qe_calculations/pseudos/SSSP_efficiency_pseudos/O.pbe-n-kjpaw_psl.0.1.UPF
     MD5 check sum: 0234752ac141de4415c5fc33072bef88
     Pseudo is Projector augmented-wave + core cor, Zval =  6.0
     Generated using "atomic" code by A. Dal Corso v.5.0.99 svn rev. 10869
     Shape of augmentation charge: BESSEL
     Using radial grid of 1095 points,  4 beta functions with: 
                l(1) =   0
                l(2) =   0
                l(3) =   1
                l(4) =   1
     Q(r) pseudized with 0 coefficients 


     atomic species   valence    mass     pseudopotential
        C              4.00    12.01070     C ( 1.00)
        N              5.00    14.00674     N ( 1.00)
        H              1.00     1.00794     H ( 1.00)
        Zn            20.00    65.39000     Zn( 1.00)
        O              6.00    15.99900     O ( 1.00)

     No symmetry found



   Cartesian axes

     site n.     atom                  positions (alat units)
         1           C   tau(   1) = (   0.4868595   0.3528766   0.5366977  )
         2           C   tau(   2) = (   0.5317810   0.3595692   0.5395139  )
         3           C   tau(   3) = (   0.5390708   0.4072072   0.5395365  )
         4           C   tau(   4) = (   0.5811694   0.4277682   0.5412987  )
         5           C   tau(   5) = (   0.5885207   0.4740384   0.5407802  )
         6           C   tau(   6) = (   0.6320435   0.4947943   0.5422940  )
         7           C   tau(   7) = (   0.6252831   0.5397622   0.5414654  )
         8           C   tau(   8) = (   0.5775834   0.5467095   0.5392548  )
         9           C   tau(   9) = (   0.5569401   0.5887841   0.5374030  )
        10           C   tau(  10) = (   0.5107162   0.5962457   0.5345709  )
        11           C   tau(  11) = (   0.4378232   0.5857688   0.5294864  )
        12           C   tau(  12) = (   0.3884297   0.5187213   0.5271820  )
        13           C   tau(  13) = (   0.3958090   0.5650618   0.5265159  )
        14           C   tau(  14) = (   0.3992662   0.4457498   0.5305667  )
        15           C   tau(  15) = (   0.3517919   0.4529271   0.5269681  )
        16           C   tau(  16) = (   0.3450925   0.4978711   0.5246162  )
        17           C   tau(  17) = (   0.4662439   0.3963934   0.5351685  )
        18           C   tau(  18) = (   0.4200123   0.4036697   0.5325334  )
        19           C   tau(  19) = (   0.4902578   0.6397998   0.5320470  )
        20           C   tau(  20) = (   0.4453233   0.6334448   0.5289080  )
        21           C   tau(  21) = (   0.5868248   0.6287553   0.5367393  )
        22           C   tau(  22) = (   0.6037127   0.6451122   0.4962318  )
        23           C   tau(  23) = (   0.5991149   0.6506716   0.5761111  )
        24           C   tau(  24) = (   0.6309354   0.6826846   0.4947793  )
        25           C   tau(  25) = (   0.6263877   0.6882987   0.5751893  )
        26           C   tau(  26) = (   0.6417292   0.7049088   0.5343419  )
        27           C   tau(  27) = (   0.6211562   0.3980487   0.5428670  )
        28           C   tau(  28) = (   0.6374886   0.3818802   0.5835442  )
        29           C   tau(  29) = (   0.6430823   0.3852279   0.5035079  )
        30           C   tau(  30) = (   0.6739060   0.3530425   0.5852779  )
        31           C   tau(  31) = (   0.6793299   0.3563103   0.5046426  )
        32           C   tau(  32) = (   0.6947545   0.3399939   0.5455642  )
        33           C   tau(  33) = (   0.3559585   0.5949341   0.5223048  )
        34           C   tau(  34) = (   0.3347429   0.6117837   0.5603866  )
        35           C   tau(  35) = (   0.3394256   0.6075374   0.4803515  )
        36           C   tau(  36) = (   0.2991255   0.6415151   0.5569256  )
        37           C   tau(  37) = (   0.3039411   0.6374107   0.4763999  )
        38           C   tau(  38) = (   0.2840270   0.6547932   0.5148629  )
        39           C   tau(  39) = (   0.3904416   0.3635045   0.5300508  )
        40           C   tau(  40) = (   0.3705058   0.3454565   0.5682049  )
        41           C   tau(  41) = (   0.3818054   0.3430696   0.4888464  )
        42           C   tau(  42) = (   0.3421574   0.3085860   0.5655988  )
        43           C   tau(  43) = (   0.3535843   0.3063597   0.4857502  )
        44           C   tau(  44) = (   0.3330902   0.2893944   0.5239801  )
        45           N   tau(  45) = (   0.4986458   0.4289181   0.5368463  )
        46           N   tau(  46) = (   0.5559163   0.5062795   0.5388437  )
        47           N   tau(  47) = (   0.4781270   0.5639003   0.5330304  )
        48           N   tau(  48) = (   0.4208215   0.4862996   0.5307222  )
        49           Zn  tau(  49) = (   0.4877667   0.4962398   0.5350144  )
        50           H   tau(  50) = (   0.6504845   0.5658142   0.5422347  )
        51           H   tau(  51) = (   0.6636889   0.4772377   0.5436282  )
        52           H   tau(  52) = (   0.5576663   0.3343493   0.5413786  )
        53           H   tau(  53) = (   0.4691844   0.3213180   0.5356120  )
        54           H   tau(  54) = (   0.3266242   0.4269549   0.5263719  )
        55           H   tau(  55) = (   0.3133865   0.5151048   0.5213401  )
        56           H   tau(  56) = (   0.4197670   0.6590059   0.5263101  )
        57           H   tau(  57) = (   0.5080226   0.6713501   0.5325403  )
        58           H   tau(  58) = (   0.5955239   0.6277300   0.4653407  )
        59           H   tau(  59) = (   0.5874390   0.6377281   0.6080329  )
        60           H   tau(  60) = (   0.6436082   0.6957511   0.4632913  )
        61           H   tau(  61) = (   0.6356270   0.7052577   0.6061652  )
        62           H   tau(  62) = (   0.6215114   0.3927308   0.6143550  )
        63           H   tau(  63) = (   0.6314899   0.3984675   0.4716402  )
        64           H   tau(  64) = (   0.6863112   0.3409160   0.6174251  )
        65           H   tau(  65) = (   0.6964812   0.3457419   0.4743527  )
        66           H   tau(  66) = (   0.3460082   0.6010832   0.5932701  )
        67           H   tau(  67) = (   0.3544095   0.5934965   0.4502878  )
        68           H   tau(  68) = (   0.2828467   0.6543847   0.5869370  )
        69           H   tau(  69) = (   0.2912208   0.6475886   0.4439057  )
        70           H   tau(  70) = (   0.3777268   0.3604375   0.6005939  )
        71           H   tau(  71) = (   0.3970754   0.3566657   0.4587622  )
        72           H   tau(  72) = (   0.3277916   0.2945053   0.5960480  )
        73           H   tau(  73) = (   0.3462458   0.2907256   0.4537352  )
        74           H   tau(  74) = (   0.2830537   0.2536821   0.5425858  )
        75           H   tau(  75) = (   0.7391956   0.3046719   0.5749157  )
        76           H   tau(  76) = (   0.6702582   0.7549222   0.5615465  )
        77           H   tau(  77) = (   0.2381367   0.6923560   0.5387732  )
        78           O   tau(  78) = (   0.3048050   0.2537132   0.5183044  )
        79           O   tau(  79) = (   0.7306161   0.3116623   0.5444830  )
        80           O   tau(  80) = (   0.6669558   0.7428625   0.5313968  )
        81           O   tau(  81) = (   0.2495855   0.6843843   0.5094324  )

     number of k points=     1
                       cart. coord. in units 2pi/alat
        k(    1) = (   0.0000000   0.0000000   0.0000000), wk =   2.0000000

     Dense  grid: 12308199 G-vectors     FFT dimensions: ( 375, 375, 375)

     Smooth grid:  3113559 G-vectors     FFT dimensions: ( 240, 240, 240)

     Estimated max dynamical RAM per process >       1.82 GB

     Estimated total dynamical RAM >      58.30 GB

     Initial potential from superposition of free atoms

     starting charge  267.99773, renormalised to  268.00000

     negative rho (up, down):  1.313E-02 0.000E+00
     Starting wfcs are  249 randomized atomic wfcs
     Checking if some PAW data can be deallocated... 

     total cpu time spent up to now is       46.4 secs

     Self-consistent Calculation

     iteration #  1     ecut=    40.00 Ry     beta= 0.70
     Davidson diagonalization with overlap
     ethr =  1.00E-02,  avg # of iterations =  4.0

     negative rho (up, down):  1.493E-02 0.000E+00

     total cpu time spent up to now is       88.9 secs

     total energy              =   -1550.31545415 Ry
     Harris-Foulkes estimate   =   -1556.58779914 Ry
     estimated scf accuracy    <       9.41456474 Ry

     iteration #  2     ecut=    40.00 Ry     beta= 0.70
     Davidson diagonalization with overlap
     ethr =  3.51E-03,  avg # of iterations =  6.0

     negative rho (up, down):  1.635E-02 0.000E+00

     total cpu time spent up to now is      133.4 secs

     total energy              =   -1552.14211148 Ry
     Harris-Foulkes estimate   =   -1553.74056069 Ry
     estimated scf accuracy    <       2.68880905 Ry

     iteration #  3     ecut=    40.00 Ry     beta= 0.70
     Davidson diagonalization with overlap
     ethr =  1.00E-03,  avg # of iterations =  5.0

     negative rho (up, down):  1.603E-02 0.000E+00

     total cpu time spent up to now is      175.2 secs

     total energy              =   -1552.79385723 Ry
     Harris-Foulkes estimate   =   -1552.96258966 Ry
     estimated scf accuracy    <       0.29532701 Ry

     iteration #  4     ecut=    40.00 Ry     beta= 0.70
     Davidson diagonalization with overlap
     ethr =  1.10E-04,  avg # of iterations = 14.0

     negative rho (up, down):  1.595E-02 0.000E+00

     total cpu time spent up to now is      226.3 secs

     total energy              =   -1552.86145707 Ry
     Harris-Foulkes estimate   =   -1552.91095264 Ry
     estimated scf accuracy    <       0.10296363 Ry

     iteration #  5     ecut=    40.00 Ry     beta= 0.70
     Davidson diagonalization with overlap
     ethr =  3.84E-05,  avg # of iterations =  8.0

     negative rho (up, down):  1.610E-02 0.000E+00

     total cpu time spent up to now is      266.4 secs

     total energy              =   -1552.88064152 Ry
     Harris-Foulkes estimate   =   -1552.88781969 Ry
     estimated scf accuracy    <       0.01478046 Ry

     iteration #  6     ecut=    40.00 Ry     beta= 0.70
     Davidson diagonalization with overlap
     c_bands:  1 eigenvalues not converged
     ethr =  5.52E-06,  avg # of iterations = 20.0

     negative rho (up, down):  1.620E-02 0.000E+00

     total cpu time spent up to now is      315.8 secs

     total energy              =   -1552.88362656 Ry
     Harris-Foulkes estimate   =   -1552.88642016 Ry
     estimated scf accuracy    <       0.00768451 Ry

     iteration #  7     ecut=    40.00 Ry     beta= 0.70
     Davidson diagonalization with overlap
     ethr =  2.87E-06,  avg # of iterations =  7.0

     negative rho (up, down):  1.624E-02 0.000E+00

     total cpu time spent up to now is      353.8 secs

     total energy              =   -1552.88493771 Ry
     Harris-Foulkes estimate   =   -1552.88528441 Ry
     estimated scf accuracy    <       0.00082519 Ry

     iteration #  8     ecut=    40.00 Ry     beta= 0.70
     Davidson diagonalization with overlap
     ethr =  3.08E-07,  avg # of iterations =  3.0

     negative rho (up, down):  1.626E-02 0.000E+00

     total cpu time spent up to now is      391.5 secs

     total energy              =   -1552.88510674 Ry
     Harris-Foulkes estimate   =   -1552.88513717 Ry
     estimated scf accuracy    <       0.00006189 Ry

     iteration #  9     ecut=    40.00 Ry     beta= 0.70
     Davidson diagonalization with overlap
     ethr =  2.31E-08,  avg # of iterations =  3.0

     negative rho (up, down):  1.627E-02 0.000E+00

     total cpu time spent up to now is      430.9 secs

     total energy              =   -1552.88512266 Ry
     Harris-Foulkes estimate   =   -1552.88512652 Ry
     estimated scf accuracy    <       0.00000775 Ry

     iteration # 10     ecut=    40.00 Ry     beta= 0.70
     Davidson diagonalization with overlap
     ethr =  2.89E-09,  avg # of iterations =  3.0

     negative rho (up, down):  1.627E-02 0.000E+00

     total cpu time spent up to now is      469.9 secs

     total energy              =   -1552.88512429 Ry
     Harris-Foulkes estimate   =   -1552.88512555 Ry
     estimated scf accuracy    <       0.00000279 Ry

     iteration # 11     ecut=    40.00 Ry     beta= 0.70
     Davidson diagonalization with overlap
     ethr =  1.04E-09,  avg # of iterations =  3.0

     negative rho (up, down):  1.627E-02 0.000E+00

     total cpu time spent up to now is      507.8 secs

     total energy              =   -1552.88512482 Ry
     Harris-Foulkes estimate   =   -1552.88512505 Ry
     estimated scf accuracy    <       0.00000052 Ry

     iteration # 12     ecut=    40.00 Ry     beta= 0.70
     Davidson diagonalization with overlap
     ethr =  1.94E-10,  avg # of iterations =  3.0

     negative rho (up, down):  1.627E-02 0.000E+00

     total cpu time spent up to now is      546.0 secs

     total energy              =   -1552.88512493 Ry
     Harris-Foulkes estimate   =   -1552.88512498 Ry
     estimated scf accuracy    <       0.00000012 Ry

     iteration # 13     ecut=    40.00 Ry     beta= 0.70
     Davidson diagonalization with overlap
     ethr =  4.30E-11,  avg # of iterations =  3.0

     negative rho (up, down):  1.627E-02 0.000E+00

     total cpu time spent up to now is      583.2 secs

     total energy              =   -1552.88512495 Ry
     Harris-Foulkes estimate   =   -1552.88512496 Ry
     estimated scf accuracy    <       0.00000003 Ry

     iteration # 14     ecut=    40.00 Ry     beta= 0.70
     Davidson diagonalization with overlap
     ethr =  1.21E-11,  avg # of iterations =  3.0

     negative rho (up, down):  1.627E-02 0.000E+00

     total cpu time spent up to now is      619.9 secs

     total energy              =   -1552.88512495 Ry
     Harris-Foulkes estimate   =   -1552.88512496 Ry
     estimated scf accuracy    <          5.9E-09 Ry

     iteration # 15     ecut=    40.00 Ry     beta= 0.70
     Davidson diagonalization with overlap
     ethr =  2.21E-12,  avg # of iterations =  3.0

     negative rho (up, down):  1.627E-02 0.000E+00

     total cpu time spent up to now is      658.0 secs

     total energy              =   -1552.88512496 Ry
     Harris-Foulkes estimate   =   -1552.88512496 Ry
     estimated scf accuracy    <          9.2E-10 Ry

     iteration # 16     ecut=    40.00 Ry     beta= 0.70
     Davidson diagonalization with overlap
     ethr =  3.43E-13,  avg # of iterations =  4.0

     negative rho (up, down):  1.627E-02 0.000E+00

     total cpu time spent up to now is      696.7 secs

     total energy              =   -1552.88512496 Ry
     Harris-Foulkes estimate   =   -1552.88512496 Ry
     estimated scf accuracy    <          1.5E-10 Ry

     iteration # 17     ecut=    40.00 Ry     beta= 0.70
     Davidson diagonalization with overlap
     ethr =  1.00E-13,  avg # of iterations =  3.0

     negative rho (up, down):  1.627E-02 0.000E+00

     total cpu time spent up to now is      733.4 secs

     End of self-consistent calculation

          k = 0.0000 0.0000 0.0000 (389220 PWs)   bands (ev):

  -128.6720 -83.0508 -82.7594 -82.7574 -26.5305 -26.5239 -26.5099 -26.3919
   -23.7240 -23.5016 -23.4848 -23.2443 -21.2892 -21.2058 -21.2024 -21.1642
   -20.1036 -19.6575 -19.6546 -19.1984 -18.6494 -18.6405 -18.6305 -18.4831
   -18.4091 -18.4051 -18.3984 -18.3897 -17.9691 -17.7978 -17.7879 -17.3988
   -17.1851 -15.9804 -15.9656 -15.4203 -15.2780 -15.2619 -15.2217 -14.9234
   -14.6559 -14.6451 -14.5565 -14.2501 -14.0230 -13.5494 -13.5457 -13.3884
   -13.3266 -13.3227 -13.3097 -13.2997 -13.0791 -13.0642 -12.5115 -12.4966
   -12.3558 -12.1890 -12.1789 -11.9880 -11.5662 -11.5299 -11.5153 -11.3843
   -10.9286 -10.9162 -10.8875 -10.5657 -10.5457 -10.4927 -10.4478 -10.3898
   -10.1808 -10.1748 -10.1495 -10.1431 -10.1397 -10.1128 -10.0742 -10.0658
   -10.0506  -9.9774  -9.9019  -9.8851  -9.8796  -9.8179  -9.6555  -9.6373
    -9.6148  -9.4544  -9.4462  -9.3898  -9.3041  -9.2934  -9.1955  -9.1662
    -9.0522  -8.8574  -8.7234  -8.7116  -8.6882  -8.6730  -8.6600  -8.4646
    -8.4607  -8.1980  -8.0969  -8.0290  -8.0195  -8.0041  -7.9781  -7.9562
    -7.8427  -7.6876  -7.4286  -7.4148  -7.4068  -6.6193  -6.6144  -6.2704
    -6.2624  -6.2184  -6.2143  -6.0875  -5.7020  -5.6916  -5.6818  -5.4153
    -5.3654  -5.3485  -5.3160  -5.0683  -4.8235  -4.6345  -2.7026  -2.6941
    -1.4109  -1.1800  -1.1494  -1.1263  -1.1164  -0.8835  -0.8323  -0.8162
    -0.7670  -0.6290  -0.5965  -0.5941  -0.5583  -0.3274  -0.1787  -0.0622
    -0.0585  -0.0522   0.0075   0.0545   0.0614   0.0646   0.0834   0.1127
     0.1134   0.1637   0.1682   0.1781   0.1881   0.1905   0.2265   0.2482
     0.2492   0.2543   0.3107   0.3192

     highest occupied, lowest unoccupied level (ev):    -4.6345   -2.7026

!    total energy              =   -1552.88512496 Ry
     Harris-Foulkes estimate   =   -1552.88512496 Ry
     estimated scf accuracy    <          5.4E-11 Ry

     The total energy is the sum of the following terms:

     one-electron contribution =   -9205.42199985 Ry
     hartree contribution      =    4634.54370142 Ry
     xc contribution           =    -316.62937178 Ry
     ewald contribution        =    3644.02797028 Ry
     one-center paw contrib.   =    -309.40542502 Ry

     convergence has been achieved in  17 iterations

     Writing output data file ZnTHPP_relax.save/
 
     init_run     :     42.12s CPU     44.39s WALL (       1 calls)
     electrons    :    636.69s CPU    687.79s WALL (       1 calls)

     Called by init_run:
     wfcinit      :      9.73s CPU     10.07s WALL (       1 calls)
     potinit      :      6.64s CPU      6.96s WALL (       1 calls)
     hinit0       :     11.44s CPU     11.68s WALL (       1 calls)

     Called by electrons:
     c_bands      :    314.15s CPU    319.58s WALL (      17 calls)
     sum_band     :    196.38s CPU    215.76s WALL (      17 calls)
     v_of_rho     :     35.73s CPU     38.45s WALL (      18 calls)
     newd         :     78.68s CPU    101.79s WALL (      18 calls)
     PAW_pot      :      2.72s CPU      2.82s WALL (      18 calls)
     mix_rho      :      9.93s CPU     10.80s WALL (      17 calls)

     Called by c_bands:
     init_us_2    :      2.48s CPU      2.53s WALL (      35 calls)
     regterg      :    309.51s CPU    314.92s WALL (      17 calls)

     Called by sum_band:
     sum_band:bec :      0.01s CPU      0.01s WALL (      17 calls)
     addusdens    :    123.67s CPU    142.38s WALL (      17 calls)

     Called by *egterg:
     h_psi        :    272.40s CPU    274.25s WALL (     113 calls)
     s_psi        :      8.62s CPU      8.63s WALL (     113 calls)
     g_psi        :      0.67s CPU      0.68s WALL (      95 calls)
     rdiaghg      :      3.08s CPU      3.55s WALL (     112 calls)

     Called by h_psi:
     h_psi:pot    :    271.04s CPU    272.88s WALL (     113 calls)
     h_psi:calbec :      9.17s CPU      9.23s WALL (     113 calls)
     vloc_psi     :    253.24s CPU    255.00s WALL (     113 calls)
     add_vuspsi   :      8.63s CPU      8.65s WALL (     113 calls)

     General routines
     calbec       :     11.79s CPU     11.88s WALL (     130 calls)
     fft          :     42.33s CPU     45.54s WALL (     196 calls)
     ffts         :      1.66s CPU      1.73s WALL (      35 calls)
     fftw         :    196.60s CPU    198.31s WALL (    9518 calls)
     interpolate  :      4.36s CPU      4.74s WALL (      18 calls)
 
     Parallel routines
     fft_scatt_xy :     52.92s CPU     53.09s WALL (    9749 calls)
     fft_scatt_yz :     70.24s CPU     73.49s WALL (    9749 calls)
 
     PWSCF        :  11m20.76s CPU  12m20.76s WALL

 
   This run was terminated on:   1: 7:57  29May2021            

=------------------------------------------------------------------------------=
   JOB DONE.
=------------------------------------------------------------------------------=
