
     Program PWSCF v.6.4.1 starts on 28May2021 at 13:29: 7 

     This program is part of the open-source Quantum ESPRESSO suite
     for quantum simulation of materials; please cite
         "P. Giannozzi et al., J. Phys.:Condens. Matter 21 395502 (2009);
         "P. Giannozzi et al., J. Phys.:Condens. Matter 29 465901 (2017);
          URL http://www.quantum-espresso.org", 
     in publications or presentations arising from this work. More details at
     http://www.quantum-espresso.org/quote

     Parallel version (MPI & OpenMP), running on      32 processor cores
     Number of MPI processes:                32
     Threads/MPI process:                     1

     MPI processes distributed on     1 nodes
     R & G space division:  proc/nbgrp/npool/nimage =      32
     Reading input from ZnTHPP_relax.in
Warning: card &CELL ignored
Warning: card / ignored

     Current dimensions of program PWSCF are:
     Max number of different atomic species (ntypx) = 10
     Max number of k-points (npk) =  40000
     Max angular momentum in pseudopotentials (lmaxx) =  3
               file C.pbe-n-kjpaw_psl.1.0.0.UPF: wavefunction(s)  2S 2P renormalized
               file O.pbe-n-kjpaw_psl.0.1.UPF: wavefunction(s)  2P renormalized

     gamma-point specific algorithms are used

     Subspace diagonalization in iterative solution of the eigenvalue problem:
     one sub-group per band group will be used
     scalapack distributed-memory algorithm (size of sub-group:  4*  4 procs)

 
     Parallelization info
     --------------------
     sticks:   dense  smooth     PW     G-vecs:    dense   smooth      PW
     Min        2795    1117    280               629624   159274   19920
     Max        2800    1120    282               629634   159284   19926
     Sum       89493   35781   8969             20148069  5096985  637483
 


     bravais-lattice index     =            0
     lattice parameter (alat)  =      56.6918  a.u.
     unit-cell volume          =  182205.0337 (a.u.)^3
     number of atoms/cell      =           81
     number of atomic types    =            5
     number of electrons       =       268.00
     number of Kohn-Sham states=          161
     kinetic-energy cutoff     =      35.0000  Ry
     charge density cutoff     =     350.0000  Ry
     convergence threshold     =      1.0E-08
     mixing beta               =       0.7000
     number of iterations used =            8  plain     mixing
     Exchange-correlation      = SLA PW PBX PBC ( 1  4  3  4 0 0)
     nstep                     =           50


     celldm(1)=  56.691784  celldm(2)=   0.000000  celldm(3)=   0.000000
     celldm(4)=   0.000000  celldm(5)=   0.000000  celldm(6)=   0.000000

     crystal axes: (cart. coord. in units of alat)
               a(1) = (   1.000000   0.000000   0.000000 )  
               a(2) = (   0.000000   1.000000   0.000000 )  
               a(3) = (   0.000000   0.000000   1.000000 )  

     reciprocal axes: (cart. coord. in units 2 pi/alat)
               b(1) = (  1.000000  0.000000  0.000000 )  
               b(2) = (  0.000000  1.000000  0.000000 )  
               b(3) = (  0.000000  0.000000  1.000000 )  


     PseudoPot. # 1 for C  read from file:
     /u/fzheng/0.qe_calculations/pseudos/SSSP_efficiency_pseudos/C.pbe-n-kjpaw_psl.1.0.0.UPF
     MD5 check sum: 5d2aebdfa2cae82b50a7e79e9516da0f
     Pseudo is Projector augmented-wave + core cor, Zval =  4.0
     Generated using "atomic" code by A. Dal Corso v.5.1
     Shape of augmentation charge: PSQ
     Using radial grid of 1073 points,  4 beta functions with: 
                l(1) =   0
                l(2) =   0
                l(3) =   1
                l(4) =   1
     Q(r) pseudized with 0 coefficients 


     PseudoPot. # 2 for N  read from file:
     /u/fzheng/0.qe_calculations/pseudos/SSSP_efficiency_pseudos/N.pbe-n-radius_5.UPF
     MD5 check sum: 16739722b17309cd8fe442a2ace49922
     Pseudo is Ultrasoft + core correction, Zval =  5.0
     Generated using "atomic" code by A. Dal Corso v.5.1
     Using radial grid of 1085 points,  4 beta functions with: 
                l(1) =   0
                l(2) =   0
                l(3) =   1
                l(4) =   1
     Q(r) pseudized with 0 coefficients 


     PseudoPot. # 3 for H  read from file:
     /u/fzheng/0.qe_calculations/pseudos/SSSP_efficiency_pseudos/H.pbe-rrkjus_psl.1.0.0.UPF
     MD5 check sum: f52b6d4d1c606e5624b1dc7b2218f220
     Pseudo is Ultrasoft, Zval =  1.0
     Generated using "atomic" code by A. Dal Corso v.5.1
     Using radial grid of  929 points,  2 beta functions with: 
                l(1) =   0
                l(2) =   0
     Q(r) pseudized with 0 coefficients 


     PseudoPot. # 4 for Zn read from file:
     /u/fzheng/0.qe_calculations/pseudos/SSSP_efficiency_pseudos/Zn_pbe_v1.uspp.F.UPF
     MD5 check sum: df62231357ef9e81f77b2b3087fa5675
     Pseudo is Ultrasoft, Zval = 20.0
     Generated by new atomic code, or converted to UPF format
     Using radial grid of  943 points,  6 beta functions with: 
                l(1) =   0
                l(2) =   0
                l(3) =   1
                l(4) =   1
                l(5) =   2
                l(6) =   2
     Q(r) pseudized with  8 coefficients,  rinner =    1.100   1.100   1.100
                                                       1.100   1.100

     PseudoPot. # 5 for O  read from file:
     /u/fzheng/0.qe_calculations/pseudos/SSSP_efficiency_pseudos/O.pbe-n-kjpaw_psl.0.1.UPF
     MD5 check sum: 0234752ac141de4415c5fc33072bef88
     Pseudo is Projector augmented-wave + core cor, Zval =  6.0
     Generated using "atomic" code by A. Dal Corso v.5.0.99 svn rev. 10869
     Shape of augmentation charge: BESSEL
     Using radial grid of 1095 points,  4 beta functions with: 
                l(1) =   0
                l(2) =   0
                l(3) =   1
                l(4) =   1
     Q(r) pseudized with 0 coefficients 


     atomic species   valence    mass     pseudopotential
        C              4.00    12.01070     C ( 1.00)
        N              5.00    14.00674     N ( 1.00)
        H              1.00     1.00794     H ( 1.00)
        Zn            20.00    65.39000     Zn( 1.00)
        O              6.00    15.99900     O ( 1.00)

     No symmetry found



   Cartesian axes

     site n.     atom                  positions (alat units)
         1           C   tau(   1) = (   0.4852700   0.3522600   0.5382000  )
         2           C   tau(   2) = (   0.5305100   0.3580600   0.5400800  )
         3           C   tau(   3) = (   0.5392500   0.4065200   0.5392700  )
         4           C   tau(   4) = (   0.5796700   0.4266400   0.5410400  )
         5           C   tau(   5) = (   0.5871500   0.4734500   0.5405000  )
         6           C   tau(   6) = (   0.6305300   0.4938000   0.5426300  )
         7           C   tau(   7) = (   0.6243500   0.5397900   0.5403500  )
         8           C   tau(   8) = (   0.5768300   0.5474700   0.5376500  )
         9           C   tau(   9) = (   0.5567200   0.5897500   0.5359000  )
        10           C   tau(  10) = (   0.5118300   0.5975600   0.5337600  )
        11           C   tau(  11) = (   0.4376700   0.5854600   0.5296300  )
        12           C   tau(  12) = (   0.3885800   0.5199400   0.5273500  )
        13           C   tau(  13) = (   0.3955400   0.5651300   0.5273500  )
        14           C   tau(  14) = (   0.3988100   0.4450200   0.5281500  )
        15           C   tau(  15) = (   0.3502900   0.4535800   0.5240200  )
        16           C   tau(  16) = (   0.3442200   0.4986300   0.5244600  )
        17           C   tau(  17) = (   0.4646600   0.3966800   0.5351800  )
        18           C   tau(  18) = (   0.4183000   0.4039300   0.5309600  )
        19           C   tau(  19) = (   0.4900300   0.6411400   0.5320400  )
        20           C   tau(  20) = (   0.4448100   0.6340100   0.5292500  )
        21           C   tau(  21) = (   0.5890500   0.6296000   0.5367100  )
        22           C   tau(  22) = (   0.6055000   0.6470100   0.4968700  )
        23           C   tau(  23) = (   0.6019000   0.6483100   0.5773101  )
        24           C   tau(  24) = (   0.6347900   0.6831300   0.4975800  )
        25           C   tau(  25) = (   0.6311700   0.6844500   0.5780200  )
        26           C   tau(  26) = (   0.6476400   0.7018400   0.5381800  )
        27           C   tau(  27) = (   0.6221700   0.3979500   0.5436900  )
        28           C   tau(  28) = (   0.6393200   0.3856100   0.5851300  )
        29           C   tau(  29) = (   0.6434800   0.3842800   0.5047100  )
        30           C   tau(  30) = (   0.6778000   0.3596200   0.5875600  )
        31           C   tau(  31) = (   0.6819600   0.3583000   0.5071400  )
        32           C   tau(  32) = (   0.6991200   0.3459500   0.5485400  )
        33           C   tau(  33) = (   0.3543700   0.5956400   0.5241900  )
        34           C   tau(  34) = (   0.3329700   0.6098700   0.5629200  )
        35           C   tau(  35) = (   0.3385300   0.6090200   0.4825700  )
        36           C   tau(  36) = (   0.2956500   0.6375000   0.5600700  )
        37           C   tau(  37) = (   0.3012300   0.6366800   0.4797300  )
        38           C   tau(  38) = (   0.2798000   0.6509200   0.5184500  )
        39           C   tau(  39) = (   0.3885000   0.3621500   0.5294700  )
        40           C   tau(  40) = (   0.3714700   0.3443100   0.5688800  )
        41           C   tau(  41) = (   0.3785500   0.3421500   0.4886900  )
        42           C   tau(  42) = (   0.3445100   0.3064500   0.5675300  )
        43           C   tau(  43) = (   0.3515400   0.3043200   0.4872900  )
        44           C   tau(  44) = (   0.3345300   0.2864600   0.5267100  )
        45           N   tau(  45) = (   0.4969500   0.4288900   0.5362600  )
        46           N   tau(  46) = (   0.5548900   0.5063600   0.5375300  )
        47           N   tau(  47) = (   0.4779300   0.5640500   0.5324000  )
        48           N   tau(  48) = (   0.4213100   0.4865500   0.5296100  )
        49           Zn  tau(  49) = (   0.4878600   0.4964600   0.5344000  )
        50           H   tau(  50) = (   0.6499100   0.5646600   0.5405400  )
        51           H   tau(  51) = (   0.6617500   0.4767800   0.5454300  )
        52           H   tau(  52) = (   0.5550300   0.3322200   0.5418100  )
        53           H   tau(  53) = (   0.4680100   0.3210500   0.5388100  )
        54           H   tau(  54) = (   0.3247000   0.4289100   0.5212000  )
        55           H   tau(  55) = (   0.3128800   0.5155700   0.5229900  )
        56           H   tau(  56) = (   0.4195300   0.6590900   0.5271900  )
        57           H   tau(  57) = (   0.5063300   0.6728600   0.5328100  )
        58           H   tau(  58) = (   0.5953800   0.6322500   0.4648700  )
        59           H   tau(  59) = (   0.5889200   0.6346100   0.6087200  )
        60           H   tau(  60) = (   0.6477700   0.6968300   0.4661700  )
        61           H   tau(  61) = (   0.6412700   0.6991900   0.6100400  )
        62           H   tau(  62) = (   0.6225100   0.3963900   0.6158800  )
        63           H   tau(  63) = (   0.6299500   0.3940200   0.4720500  )
        64           H   tau(  64) = (   0.6913500   0.3499100   0.6201900  )
        65           H   tau(  65) = (   0.6987400   0.3475300   0.4763800  )
        66           H   tau(  66) = (   0.3454600   0.5993000   0.5957200  )
        67           H   tau(  67) = (   0.3554000   0.5978200   0.4520300  )
        68           H   tau(  68) = (   0.2787700   0.6487000   0.5906100  )
        69           H   tau(  69) = (   0.2887300   0.6472500   0.4469200  )
        70           H   tau(  70) = (   0.3793600   0.3600600   0.6010400  )
        71           H   tau(  71) = (   0.3919700   0.3562100   0.4575900  )
        72           H   tau(  72) = (   0.3310900   0.2923800   0.5985999  )
        73           H   tau(  73) = (   0.3436900   0.2885800   0.4551400  )
        74           H   tau(  74) = (   0.2762300   0.2564900   0.5225900  )
        75           H   tau(  75) = (   0.7305100   0.2883600   0.5519600  )
        76           H   tau(  76) = (   0.6610100   0.7661400   0.5381000  )
        77           H   tau(  77) = (   0.2508300   0.7098200   0.5166200  )
        78           O   tau(  78) = (   0.3068600   0.2476700   0.5253500  )
        79           O   tau(  79) = (   0.7385800   0.3193200   0.5510300  )
        80           O   tau(  80) = (   0.6776700   0.7388300   0.5389100  )
        81           O   tau(  81) = (   0.2415700   0.6792300   0.5155200  )

     number of k points=     1  gaussian smearing, width (Ry)=  0.0100
                       cart. coord. in units 2pi/alat
        k(    1) = (   0.0000000   0.0000000   0.0000000), wk =   2.0000000

     Dense  grid: 10074035 G-vectors     FFT dimensions: ( 360, 360, 360)

     Smooth grid:  2548493 G-vectors     FFT dimensions: ( 216, 216, 216)

     Estimated max dynamical RAM per process >       2.44 GB

     Estimated total dynamical RAM >      77.96 GB

     Initial potential from superposition of free atoms

     starting charge  267.99773, renormalised to  268.00000

     negative rho (up, down):  2.088E-02 0.000E+00
     Starting wfcs are  249 randomized atomic wfcs
     Checking if some PAW data can be deallocated... 

     total cpu time spent up to now is       37.8 secs

     Self-consistent Calculation

     iteration #  1     ecut=    35.00 Ry     beta= 0.70
     Davidson diagonalization with overlap
     ethr =  1.00E-02,  avg # of iterations =  3.0

     negative rho (up, down):  3.487E-02 0.000E+00

     total cpu time spent up to now is       69.9 secs

     total energy              =   -1550.11767760 Ry
     Harris-Foulkes estimate   =   -1556.26540475 Ry
     estimated scf accuracy    <       9.26651673 Ry

     iteration #  2     ecut=    35.00 Ry     beta= 0.70
     Davidson diagonalization with overlap
     ethr =  3.46E-03,  avg # of iterations =  7.0

     negative rho (up, down):  3.777E-02 0.000E+00

     total cpu time spent up to now is      103.6 secs

     total energy              =   -1551.88636826 Ry
     Harris-Foulkes estimate   =   -1553.48607173 Ry
     estimated scf accuracy    <       2.69258847 Ry

     iteration #  3     ecut=    35.00 Ry     beta= 0.70
     Davidson diagonalization with overlap
     ethr =  1.00E-03,  avg # of iterations =  6.0

     negative rho (up, down):  3.834E-02 0.000E+00

     total cpu time spent up to now is      135.9 secs

     total energy              =   -1552.53840463 Ry
     Harris-Foulkes estimate   =   -1552.71605048 Ry
     estimated scf accuracy    <       0.31385053 Ry

     iteration #  4     ecut=    35.00 Ry     beta= 0.70
     Davidson diagonalization with overlap
     ethr =  1.17E-04,  avg # of iterations = 14.0

     negative rho (up, down):  3.813E-02 0.000E+00

     total cpu time spent up to now is      171.1 secs

     total energy              =   -1552.60433477 Ry
     Harris-Foulkes estimate   =   -1552.66068785 Ry
     estimated scf accuracy    <       0.11675427 Ry

     iteration #  5     ecut=    35.00 Ry     beta= 0.70
     Davidson diagonalization with overlap
     ethr =  4.36E-05,  avg # of iterations =  8.0

     negative rho (up, down):  3.826E-02 0.000E+00

     total cpu time spent up to now is      202.4 secs

     total energy              =   -1552.62482840 Ry
     Harris-Foulkes estimate   =   -1552.64023490 Ry
     estimated scf accuracy    <       0.03871769 Ry

     iteration #  6     ecut=    35.00 Ry     beta= 0.70
     Davidson diagonalization with overlap
     ethr =  1.44E-05,  avg # of iterations =  7.0

     negative rho (up, down):  3.836E-02 0.000E+00

     total cpu time spent up to now is      232.6 secs

     total energy              =   -1552.63238930 Ry
     Harris-Foulkes estimate   =   -1552.63435512 Ry
     estimated scf accuracy    <       0.00498372 Ry

     iteration #  7     ecut=    35.00 Ry     beta= 0.70
     Davidson diagonalization with overlap
     c_bands:  1 eigenvalues not converged
     ethr =  1.86E-06,  avg # of iterations = 20.0

     negative rho (up, down):  3.842E-02 0.000E+00

     total cpu time spent up to now is      268.4 secs

     total energy              =   -1552.63334715 Ry
     Harris-Foulkes estimate   =   -1552.63360559 Ry
     estimated scf accuracy    <       0.00054089 Ry

     iteration #  8     ecut=    35.00 Ry     beta= 0.70
     Davidson diagonalization with overlap
     ethr =  2.02E-07,  avg # of iterations =  3.0

     negative rho (up, down):  3.843E-02 0.000E+00

     total cpu time spent up to now is      298.3 secs

     total energy              =   -1552.63346282 Ry
     Harris-Foulkes estimate   =   -1552.63349491 Ry
     estimated scf accuracy    <       0.00006508 Ry

     iteration #  9     ecut=    35.00 Ry     beta= 0.70
     Davidson diagonalization with overlap
     ethr =  2.43E-08,  avg # of iterations =  4.0

     negative rho (up, down):  3.844E-02 0.000E+00

     total cpu time spent up to now is      328.4 secs

     total energy              =   -1552.63347810 Ry
     Harris-Foulkes estimate   =   -1552.63348330 Ry
     estimated scf accuracy    <       0.00001097 Ry

     iteration # 10     ecut=    35.00 Ry     beta= 0.70
     Davidson diagonalization with overlap
     ethr =  4.09E-09,  avg # of iterations =  4.0

     negative rho (up, down):  3.844E-02 0.000E+00

     total cpu time spent up to now is      358.4 secs

     total energy              =   -1552.63348035 Ry
     Harris-Foulkes estimate   =   -1552.63348200 Ry
     estimated scf accuracy    <       0.00000385 Ry

     iteration # 11     ecut=    35.00 Ry     beta= 0.70
     Davidson diagonalization with overlap
     ethr =  1.44E-09,  avg # of iterations =  3.0

     negative rho (up, down):  3.844E-02 0.000E+00

     total cpu time spent up to now is      387.3 secs

     total energy              =   -1552.63348104 Ry
     Harris-Foulkes estimate   =   -1552.63348140 Ry
     estimated scf accuracy    <       0.00000088 Ry

     iteration # 12     ecut=    35.00 Ry     beta= 0.70
     Davidson diagonalization with overlap
     ethr =  3.27E-10,  avg # of iterations =  3.0

     negative rho (up, down):  3.844E-02 0.000E+00

     total cpu time spent up to now is      416.0 secs

     total energy              =   -1552.63348122 Ry
     Harris-Foulkes estimate   =   -1552.63348126 Ry
     estimated scf accuracy    <       0.00000012 Ry

     iteration # 13     ecut=    35.00 Ry     beta= 0.70
     Davidson diagonalization with overlap
     ethr =  4.38E-11,  avg # of iterations =  3.0

     negative rho (up, down):  3.844E-02 0.000E+00

     total cpu time spent up to now is      445.5 secs

     total energy              =   -1552.63348124 Ry
     Harris-Foulkes estimate   =   -1552.63348125 Ry
     estimated scf accuracy    <       0.00000004 Ry

     iteration # 14     ecut=    35.00 Ry     beta= 0.70
     Davidson diagonalization with overlap
     ethr =  1.43E-11,  avg # of iterations =  3.0

     negative rho (up, down):  3.844E-02 0.000E+00

     total cpu time spent up to now is      474.0 secs

     End of self-consistent calculation

          k = 0.0000 0.0000 0.0000 (318742 PWs)   bands (ev):

  -128.7276 -83.0994 -82.8098 -82.8076 -25.7645 -25.7645 -25.7536 -25.7432
   -23.5799 -23.3212 -23.3138 -23.0002 -21.4528 -21.3679 -21.3647 -21.3311
   -20.2764 -19.7807 -19.7697 -19.2514 -18.7414 -18.6913 -18.6112 -18.5131
   -18.5086 -18.4986 -18.4967 -18.4946 -18.1005 -17.9323 -17.9186 -17.4785
   -17.3741 -16.0605 -16.0294 -15.1142 -15.0398 -15.0381 -15.0306 -15.0248
   -14.7922 -14.7821 -14.6761 -14.3943 -14.2304 -13.6533 -13.6415 -13.4427
   -13.2689 -13.2578 -13.2504 -13.1788 -13.1540 -13.1498 -12.5611 -12.5428
   -12.4259 -12.2484 -12.2448 -11.8519 -11.4699 -11.4524 -11.4494 -11.4335
   -11.0495 -11.0426 -10.9983 -10.7719 -10.7660 -10.7574 -10.7502 -10.7189
   -10.2619 -10.2556 -10.2319 -10.2306 -10.2277 -10.2038 -10.1049 -10.0958
   -10.0457 -10.0342 -10.0162  -9.9487  -9.8440  -9.8273  -9.7743  -9.6980
    -9.6099  -9.4347  -9.4170  -9.3304  -9.2117  -9.0071  -8.9447  -8.8806
    -8.8590  -8.8160  -8.6783  -8.6168  -8.6081  -8.5599  -8.5137  -8.5114
    -8.5106  -8.4972  -8.4124  -8.3397  -8.2421  -8.0095  -7.6795  -7.4930
    -7.4523  -6.8226  -6.8099  -6.7814  -6.7779  -6.7635  -6.7544  -6.4054
    -6.3967  -6.3592  -6.3552  -6.1692  -6.0261  -6.0013  -5.9957  -5.9586
    -5.8246  -5.8001  -5.6564  -5.0915  -4.9312  -4.8395  -2.8478  -2.8066
    -1.5019  -1.2824  -1.2515  -1.2291  -1.2241  -1.1711  -1.1444  -1.1387
    -1.0970  -0.6015  -0.5308  -0.5195  -0.4841  -0.3769  -0.2625  -0.1493
    -0.1390  -0.1051  -0.0483  -0.0388  -0.0236   0.0152   0.0321   0.0429
     0.0619

     the Fermi energy is    -3.7077 ev

!    total energy              =   -1552.63348124 Ry
     Harris-Foulkes estimate   =   -1552.63348125 Ry
     estimated scf accuracy    <          5.8E-09 Ry

     The total energy is the sum of the following terms:

     one-electron contribution =   -9144.99666918 Ry
     hartree contribution      =    4603.97113839 Ry
     xc contribution           =    -316.18843561 Ry
     ewald contribution        =    3614.00185230 Ry
     one-center paw contrib.   =    -309.42136714 Ry
     smearing contrib. (-TS)   =      -0.00000000 Ry

     convergence has been achieved in  14 iterations

     negative rho (up, down):  3.844E-02 0.000E+00

     Forces acting on atoms (cartesian axes, Ry/au):

     atom    1 type  1   force =     0.01870927    0.04264432   -0.00291853
     atom    2 type  1   force =    -0.02750931    0.05052068   -0.00098052
     atom    3 type  1   force =    -0.12016077   -0.04852301   -0.00639416
     atom    4 type  1   force =     0.08511317    0.02949305    0.00361472
     atom    5 type  1   force =    -0.00098222    0.01669572   -0.00074208
     atom    6 type  1   force =    -0.02342638    0.05182757   -0.00545395
     atom    7 type  1   force =    -0.02044134   -0.05653856    0.00298007
     atom    8 type  1   force =     0.01474544   -0.04143997    0.00045417
     atom    9 type  1   force =     0.06343793    0.01476028    0.00283378
     atom   10 type  1   force =    -0.10352049    0.00071078   -0.00470975
     atom   11 type  1   force =     0.02573266    0.04272432    0.00036618
     atom   12 type  1   force =    -0.02066847   -0.09259485    0.00030500
     atom   13 type  1   force =    -0.02190093    0.05328989   -0.00234584
     atom   14 type  1   force =    -0.04320470    0.09724046   -0.00644014
     atom   15 type  1   force =     0.05156539    0.02470932    0.00726308
     atom   16 type  1   force =     0.04850353   -0.01335125    0.00011943
     atom   17 type  1   force =     0.02667751   -0.02605448    0.00338979
     atom   18 type  1   force =     0.00836897   -0.06845203    0.00255913
     atom   19 type  1   force =    -0.02489958   -0.04397091   -0.00209056
     atom   20 type  1   force =     0.03805709   -0.03704379    0.00400226
     atom   21 type  1   force =    -0.04099260   -0.03766027   -0.00000511
     atom   22 type  1   force =     0.00109570   -0.00039719   -0.00956561
     atom   23 type  1   force =     0.00001043    0.00034253    0.00744661
     atom   24 type  1   force =     0.00873145    0.00574383   -0.01505812
     atom   25 type  1   force =     0.00699926    0.00600659    0.01800018
     atom   26 type  1   force =     0.01297994    0.03904775   -0.00110937
     atom   27 type  1   force =    -0.05174701    0.02353416   -0.00089657
     atom   28 type  1   force =    -0.00025991    0.00047174    0.00840470
     atom   29 type  1   force =     0.00036750    0.00107859   -0.00934502
     atom   30 type  1   force =     0.00868977   -0.00342526    0.01576168
     atom   31 type  1   force =     0.01081538   -0.00455151   -0.01667717
     atom   32 type  1   force =     0.02385247   -0.03359590    0.00344009
     atom   33 type  1   force =     0.04811281   -0.03314139    0.00340477
     atom   34 type  1   force =    -0.00315122    0.00042657    0.00874569
     atom   35 type  1   force =    -0.00205395    0.00053124   -0.00757854
     atom   36 type  1   force =    -0.00925781    0.00405453    0.01501276
     atom   37 type  1   force =    -0.00757063    0.00393858   -0.01857290
     atom   38 type  1   force =    -0.02272260    0.03485436   -0.00031163
     atom   39 type  1   force =     0.03032952    0.04977741    0.00077170
     atom   40 type  1   force =    -0.00021156   -0.00089724    0.00923603
     atom   41 type  1   force =     0.00146305   -0.00098035   -0.00922956
     atom   42 type  1   force =    -0.00584756   -0.00925350    0.01491982
     atom   43 type  1   force =    -0.00262673   -0.00988214   -0.01578237
     atom   44 type  1   force =    -0.03438752   -0.02271448   -0.00081357
     atom   45 type  2   force =     0.04797062   -0.02986814    0.00340108
     atom   46 type  2   force =     0.01108553    0.00895930    0.00206955
     atom   47 type  2   force =     0.03122731    0.03427977    0.00118881
     atom   48 type  2   force =    -0.05185114   -0.01423924   -0.00222604
     atom   49 type  4   force =     0.00238607    0.00108303   -0.00183597
     atom   50 type  3   force =     0.01416123    0.01759670    0.00131901
     atom   51 type  3   force =     0.01855873   -0.01260436    0.00061004
     atom   52 type  3   force =     0.02000711   -0.01341107    0.00253974
     atom   53 type  3   force =    -0.01484363   -0.01811097   -0.00147324
     atom   54 type  3   force =    -0.01335907   -0.02060985    0.00071974
     atom   55 type  3   force =    -0.01842053    0.01585481   -0.00285304
     atom   56 type  3   force =    -0.01918949    0.01306273   -0.00090175
     atom   57 type  3   force =     0.01485061    0.01868821    0.00001177
     atom   58 type  3   force =     0.00284729    0.00431193    0.00993142
     atom   59 type  3   force =     0.00360437    0.00362874   -0.00913463
     atom   60 type  3   force =    -0.00184163   -0.00142145    0.01047101
     atom   61 type  3   force =    -0.00096169   -0.00204511   -0.01129273
     atom   62 type  3   force =     0.00482251   -0.00314924   -0.00967143
     atom   63 type  3   force =     0.00397436   -0.00293978    0.01028013
     atom   64 type  3   force =    -0.00123021    0.00099123   -0.01039338
     atom   65 type  3   force =    -0.00234290    0.00136136    0.01088304
     atom   66 type  3   force =    -0.00323551    0.00293263   -0.00992056
     atom   67 type  3   force =    -0.00447297    0.00292504    0.00909165
     atom   68 type  3   force =     0.00232998   -0.00133346   -0.01046556
     atom   69 type  3   force =     0.00110616   -0.00121531    0.01138085
     atom   70 type  3   force =    -0.00241534   -0.00444296   -0.01013801
     atom   71 type  3   force =    -0.00393082   -0.00397331    0.01015002
     atom   72 type  3   force =     0.00214858    0.00142257   -0.01069279
     atom   73 type  3   force =     0.00016419    0.00196923    0.01063840
     atom   74 type  3   force =    -0.02353724    0.01184046   -0.00216040
     atom   75 type  3   force =    -0.01097160   -0.02308541    0.00089216
     atom   76 type  3   force =    -0.01741700    0.01923619   -0.00056917
     atom   77 type  3   force =     0.01229783    0.02424125    0.00164773
     atom   78 type  5   force =     0.05616893    0.01918350    0.00388991
     atom   79 type  5   force =    -0.02102160    0.05476871   -0.00371298
     atom   80 type  5   force =    -0.00361095   -0.05856588    0.00015350
     atom   81 type  5   force =     0.01812694   -0.05727799    0.00016157

     Total force =     0.391652     Total SCF correction =     0.000194

     BFGS Geometry Optimization

     number of scf cycles    =   1
     number of bfgs steps    =   0

     energy   new            =   -1552.6334812447 Ry

     new trust radius        =       0.1297458206 bohr
     new conv_thr            =       0.0000000100 Ry


ATOMIC_POSITIONS (angstrom)
C       14.568000517  10.590366404  16.144455583
C       15.900742698  10.768534393  16.201881132
C       16.113913661  12.169923727  16.174715358
C       17.435139950  12.814807051  16.233111827
C       17.613980233  14.212334996  16.214607310
C       18.903502293  14.841425968  16.276013893
C       18.719683910  16.163780080  16.212077984
C       17.312703948  16.402169914  16.129739334
C       16.735170906  17.700309801  16.078499570
C       15.300118315  17.927176127  16.010307709
C       13.143717139  17.586409735  15.889093773
C       11.646462717  15.549201915  15.820661397
C       11.854609525  16.982098795  15.819258633
C       11.941437060  13.402056433  15.841093025
C       10.535987232  13.620475612  15.724443459
C       10.352266964  14.951833822  15.733864202
C       13.953916132  11.886612561  16.057192798
C       12.553428668  12.081676745  15.930155233
C       14.687723708  19.210931597  15.960093723
C       13.364438942  19.000697270  15.879618902
C       17.649806649  18.868071043  16.101298296
C       18.165578820  19.410090816  14.901038098
C       18.057004521  19.449482259  17.323242575
C       19.048319486  20.496939503  14.919431587
C       18.938802851  20.536677550  17.350124287
C       19.436067691  21.075862182  16.144811946
C       18.637716663  11.950952740  16.310226554
C       19.179462463  11.568549637  17.558347577
C       19.304593473  11.528969765  15.136354829
C       20.338598428  10.786787433  17.635141724
C       20.464522255  10.746591443  15.205373824
C       20.986222184  10.360721815  16.458020416
C       10.656560202  17.851662331  15.727501727
C        9.987432448  18.296326729  16.892228020
C       10.154813096  18.270880118  14.473088608
C        8.864600975  19.127145563  16.810043409
C        9.032894796  19.102485207  14.382071645
C        8.381975718  19.546043132  15.553336091
C       11.671049692  10.890841071  15.884509368
C       11.143988047  10.328825199  17.071288497
C       11.357274211  10.263981220  14.655815925
C       10.332204605   9.188604258  17.033795228
C       10.544809997   9.124371596  14.610348332
C       10.017702907   8.581781014  15.800868475
N       14.933884958  12.850893459  16.089600772
N       16.652566212  15.195541056  16.126995158
N       14.354424780  16.939641072  15.972629094
N       12.611861560  14.588964918  15.887121028
Zn      14.637061652  14.894373117  16.031028445
H       19.504792801  16.949111775  16.216897990
H       19.862321858  14.296730057  16.363222817
H       16.661487307   9.959502167  16.255642972
H       14.032445090   9.621915090  16.163521394
H        9.733930685  12.856393735  15.636380871
H        9.376652275  15.475489005  15.688189237
H       12.575745358  19.779611498  15.815223813
H       15.197758604  20.195690377  15.984305226
H       17.862907721  18.969782776  13.951355484
H       17.669508350  19.040220248  18.256766162
H       19.432125452  20.904147801  13.990642022
H       19.237591095  20.974617773  18.295225143
H       18.677852962  11.890033492  18.471282101
H       18.900603142  11.819044333  14.166940013
H       20.739847999  10.497824537  18.600201059
H       20.960960192  10.426620402  14.297159054
H       10.362087843  17.980551883  17.866349265
H       10.659633004  17.936146863  13.565711092
H        8.364332971  19.460294362  17.712761865
H        8.662485355  19.416856888  13.413622485
H       11.379520857  10.799448889  18.025835197
H       11.757019902  10.684197414  13.733071157
H        9.933836979   8.772152789  17.952339620
H       10.310786884   8.658442071  13.659829598
H        8.274445630   7.700965699  15.676555765
H       21.909494077   8.638583727  16.559272113
H       19.821084320  22.994379352  16.142698806
H        7.531407731  21.307427917  15.499470939
O        9.235523319   7.440251472  15.762557452
O       22.146275851   9.608581356  16.528934174
O       20.328190170  22.133908269  16.167380231
O        7.256692362  20.346589791  15.465684501



     Writing output data file ZnTHPP_relax.save/
     Message from routine punch:
     wavefunctions written to file
     NEW-OLD atomic charge density approx. for the potential

     negative rho (up, down):  3.762E-02 0.000E+00

     total cpu time spent up to now is      524.0 secs

     Self-consistent Calculation

     iteration #  1     ecut=    35.00 Ry     beta= 0.70
     Davidson diagonalization with overlap
     c_bands:  2 eigenvalues not converged
     ethr =  1.00E-06,  avg # of iterations = 20.0

     negative rho (up, down):  3.833E-02 0.000E+00

     total cpu time spent up to now is      573.8 secs

     total energy              =   -1552.61952392 Ry
     Harris-Foulkes estimate   =   -1552.65693508 Ry
     estimated scf accuracy    <       0.06608114 Ry

     iteration #  2     ecut=    35.00 Ry     beta= 0.70
     Davidson diagonalization with overlap
     ethr =  2.47E-05,  avg # of iterations =  3.0

     negative rho (up, down):  3.942E-02 0.000E+00

     total cpu time spent up to now is      604.5 secs

     total energy              =   -1552.62854572 Ry
     Harris-Foulkes estimate   =   -1552.65097828 Ry
     estimated scf accuracy    <       0.04042533 Ry

     iteration #  3     ecut=    35.00 Ry     beta= 0.70
     Davidson diagonalization with overlap
     ethr =  1.51E-05,  avg # of iterations =  4.0

     negative rho (up, down):  3.903E-02 0.000E+00

     total cpu time spent up to now is      634.4 secs

     total energy              =   -1552.63865275 Ry
     Harris-Foulkes estimate   =   -1552.64136684 Ry
     estimated scf accuracy    <       0.00570596 Ry

     iteration #  4     ecut=    35.00 Ry     beta= 0.70
     Davidson diagonalization with overlap
     ethr =  2.13E-06,  avg # of iterations =  6.0

     negative rho (up, down):  3.895E-02 0.000E+00

     total cpu time spent up to now is      665.0 secs

     total energy              =   -1552.63960087 Ry
     Harris-Foulkes estimate   =   -1552.64048154 Ry
     estimated scf accuracy    <       0.00207633 Ry

     iteration #  5     ecut=    35.00 Ry     beta= 0.70
     Davidson diagonalization with overlap
     ethr =  7.75E-07,  avg # of iterations =  3.0

     negative rho (up, down):  3.888E-02 0.000E+00

     total cpu time spent up to now is      693.6 secs

     total energy              =   -1552.63998473 Ry
     Harris-Foulkes estimate   =   -1552.64019382 Ry
     estimated scf accuracy    <       0.00056876 Ry

     iteration #  6     ecut=    35.00 Ry     beta= 0.70
     Davidson diagonalization with overlap
     ethr =  2.12E-07,  avg # of iterations =  3.0

     negative rho (up, down):  3.886E-02 0.000E+00

     total cpu time spent up to now is      722.0 secs

     total energy              =   -1552.64008815 Ry
     Harris-Foulkes estimate   =   -1552.64011582 Ry
     estimated scf accuracy    <       0.00006756 Ry

     iteration #  7     ecut=    35.00 Ry     beta= 0.70
     Davidson diagonalization with overlap
     ethr =  2.52E-08,  avg # of iterations =  3.0

     negative rho (up, down):  3.885E-02 0.000E+00

     total cpu time spent up to now is      751.0 secs

     total energy              =   -1552.64010176 Ry
     Harris-Foulkes estimate   =   -1552.64010479 Ry
     estimated scf accuracy    <       0.00000653 Ry

     iteration #  8     ecut=    35.00 Ry     beta= 0.70
     Davidson diagonalization with overlap
     ethr =  2.44E-09,  avg # of iterations =  3.0

     negative rho (up, down):  3.885E-02 0.000E+00

     total cpu time spent up to now is      781.1 secs

     total energy              =   -1552.64010324 Ry
     Harris-Foulkes estimate   =   -1552.64010351 Ry
     estimated scf accuracy    <       0.00000056 Ry

     iteration #  9     ecut=    35.00 Ry     beta= 0.70
     Davidson diagonalization with overlap
     ethr =  2.07E-10,  avg # of iterations =  4.0

     negative rho (up, down):  3.885E-02 0.000E+00

     total cpu time spent up to now is      812.1 secs

     total energy              =   -1552.64010333 Ry
     Harris-Foulkes estimate   =   -1552.64010353 Ry
     estimated scf accuracy    <       0.00000054 Ry

     iteration # 10     ecut=    35.00 Ry     beta= 0.70
     Davidson diagonalization with overlap
     ethr =  2.00E-10,  avg # of iterations =  3.0

     negative rho (up, down):  3.885E-02 0.000E+00

     total cpu time spent up to now is      840.4 secs

     total energy              =   -1552.64010342 Ry
     Harris-Foulkes estimate   =   -1552.64010346 Ry
     estimated scf accuracy    <       0.00000010 Ry

     iteration # 11     ecut=    35.00 Ry     beta= 0.70
     Davidson diagonalization with overlap
     ethr =  3.78E-11,  avg # of iterations =  3.0

     negative rho (up, down):  3.885E-02 0.000E+00

     total cpu time spent up to now is      868.5 secs

     End of self-consistent calculation

          k = 0.0000 0.0000 0.0000 (318742 PWs)   bands (ev):

  -128.8317 -83.2026 -82.9147 -82.9124 -26.0261 -26.0218 -26.0153 -26.0065
   -23.9812 -23.7617 -23.7471 -23.5230 -21.2480 -21.1678 -21.1676 -21.1214
   -20.0125 -19.6185 -19.5994 -19.2077 -18.8669 -18.8331 -18.8006 -18.6834
   -18.3968 -18.3929 -18.3813 -18.3732 -17.9248 -17.7720 -17.7660 -17.4282
   -17.0853 -15.9813 -15.9387 -15.2087 -14.9721 -14.9699 -14.9608 -14.9555
   -14.7251 -14.7217 -14.6399 -14.2251 -13.9725 -13.5648 -13.5607 -13.4487
   -13.2633 -13.2591 -13.2514 -13.2374 -13.1915 -13.0708 -12.6524 -12.6290
   -12.4464 -12.1705 -12.1511 -11.9457 -11.4176 -11.3940 -11.3888 -11.3663
   -11.0526 -10.9963 -10.9773 -10.7823 -10.7789 -10.7697 -10.7643 -10.4420
   -10.2993 -10.2780 -10.2703 -10.2404 -10.2310 -10.1240 -10.1136 -10.1056
   -10.0798 -10.0775 -10.0235  -9.9665  -9.9092  -9.8893  -9.6962  -9.5881
    -9.5777  -9.5619  -9.5551  -9.5034  -9.2740  -9.0006  -8.9418  -8.8639
    -8.8057  -8.7590  -8.6956  -8.6041  -8.5969  -8.5716  -8.5105  -8.5066
    -8.4834  -8.4309  -8.3769  -8.3432  -8.2414  -8.0871  -7.5709  -7.5474
    -7.3548  -6.7647  -6.7640  -6.7543  -6.7485  -6.6377  -6.6160  -6.3082
    -6.3022  -6.2557  -6.2482  -6.2215  -5.8681  -5.8572  -5.8292  -5.8147
    -5.8077  -5.7891  -5.7519  -5.2281  -4.9040  -4.6567  -2.8095  -2.7581
    -1.5024  -1.2537  -1.2354  -1.2112  -1.2066  -1.2042  -1.1867  -1.1794
    -1.1562  -0.6557  -0.6098  -0.6035  -0.5788  -0.4001  -0.2818  -0.1368
    -0.1197  -0.1126  -0.0530  -0.0248  -0.0127  -0.0083   0.0330   0.0607
     0.1023

     the Fermi energy is    -3.6718 ev

!    total energy              =   -1552.64010344 Ry
     Harris-Foulkes estimate   =   -1552.64010344 Ry
     estimated scf accuracy    <          9.7E-09 Ry

     The total energy is the sum of the following terms:

     one-electron contribution =   -9152.62454348 Ry
     hartree contribution      =    4607.96406627 Ry
     xc contribution           =    -316.29090934 Ry
     ewald contribution        =    3617.72837224 Ry
     one-center paw contrib.   =    -309.41708914 Ry
     smearing contrib. (-TS)   =      -0.00000000 Ry

     convergence has been achieved in  11 iterations

     negative rho (up, down):  3.885E-02 0.000E+00

     Forces acting on atoms (cartesian axes, Ry/au):

     atom    1 type  1   force =    -0.05272264   -0.04721508   -0.00194887
     atom    2 type  1   force =     0.04798837   -0.04624847    0.00452666
     atom    3 type  1   force =     0.09858775    0.06548525    0.00322820
     atom    4 type  1   force =    -0.08273187   -0.01061376   -0.00424844
     atom    5 type  1   force =     0.00029898   -0.01293186    0.00002077
     atom    6 type  1   force =     0.05024313   -0.06137816    0.00458669
     atom    7 type  1   force =     0.04146327    0.07075320   -0.00014828
     atom    8 type  1   force =    -0.02178674    0.02930837   -0.00203665
     atom    9 type  1   force =    -0.05873348   -0.03122806   -0.00168656
     atom   10 type  1   force =     0.08975867   -0.02511509    0.00504046
     atom   11 type  1   force =    -0.04356909   -0.01687900   -0.00252946
     atom   12 type  1   force =     0.00089599    0.08950447    0.00025317
     atom   13 type  1   force =     0.03837821   -0.05182937    0.00271358
     atom   14 type  1   force =     0.03611461   -0.09581578    0.00374142
     atom   15 type  1   force =    -0.03612440   -0.05948851   -0.00261656
     atom   16 type  1   force =    -0.04934305    0.04705056   -0.00412950
     atom   17 type  1   force =    -0.03799175   -0.00683655   -0.00218260
     atom   18 type  1   force =     0.01061766    0.07191997   -0.00143022
     atom   19 type  1   force =     0.04473416    0.05334253    0.00185301
     atom   20 type  1   force =    -0.07108777    0.03820984   -0.00455678
     atom   21 type  1   force =     0.01615501    0.02138043   -0.00122038
     atom   22 type  1   force =    -0.00178347    0.00070489    0.01969559
     atom   23 type  1   force =    -0.00042373    0.00043489   -0.01692801
     atom   24 type  1   force =    -0.00406690   -0.00217099    0.02103098
     atom   25 type  1   force =    -0.00180674   -0.00258940   -0.02395907
     atom   26 type  1   force =    -0.02331682   -0.02108870    0.00097889
     atom   27 type  1   force =     0.02421152   -0.01344857    0.00085912
     atom   28 type  1   force =     0.00010033   -0.00171104   -0.01805544
     atom   29 type  1   force =    -0.00087524   -0.00121206    0.01991790
     atom   30 type  1   force =    -0.00274536    0.00062264   -0.02142063
     atom   31 type  1   force =    -0.00643436    0.00212167    0.02330388
     atom   32 type  1   force =    -0.02797305    0.01335196   -0.00311720
     atom   33 type  1   force =    -0.02223604    0.02106180   -0.00082134
     atom   34 type  1   force =     0.00382967   -0.00315141   -0.01890088
     atom   35 type  1   force =     0.00067959   -0.00212035    0.01774414
     atom   36 type  1   force =     0.00374560   -0.00115364   -0.02152018
     atom   37 type  1   force =     0.00063026   -0.00093685    0.02501316
     atom   38 type  1   force =     0.02829265   -0.01529675    0.00025917
     atom   39 type  1   force =    -0.01558260   -0.02530990   -0.00016028
     atom   40 type  1   force =     0.00245697    0.00103319   -0.01970085
     atom   41 type  1   force =    -0.00125395    0.00174095    0.01895103
     atom   42 type  1   force =     0.00334623    0.00374004   -0.02134507
     atom   43 type  1   force =    -0.00046208    0.00467331    0.02315973
     atom   44 type  1   force =     0.01395125    0.02740927   -0.00048361
     atom   45 type  2   force =    -0.00956692    0.00678027   -0.00103794
     atom   46 type  2   force =    -0.01956527   -0.00662950    0.00014203
     atom   47 type  2   force =    -0.00697864   -0.01040136   -0.00039098
     atom   48 type  2   force =     0.01399419    0.00354003    0.00224022
     atom   49 type  4   force =     0.00256372    0.00037061   -0.00169028
     atom   50 type  3   force =    -0.02246126   -0.01990494    0.00117549
     atom   51 type  3   force =    -0.02109524    0.01260564   -0.00315005
     atom   52 type  3   force =    -0.01578449    0.02934830   -0.00010211
     atom   53 type  3   force =     0.00902445    0.02378815   -0.00231335
     atom   54 type  3   force =     0.02830043    0.01514814    0.00524690
     atom   55 type  3   force =     0.02773341   -0.00718597   -0.00069534
     atom   56 type  3   force =     0.01793933   -0.02329628    0.00213333
     atom   57 type  3   force =    -0.00783103   -0.02837409   -0.00105950
     atom   58 type  3   force =     0.00028594   -0.00062732   -0.00270992
     atom   59 type  3   force =     0.00037252   -0.00034701    0.00190614
     atom   60 type  3   force =     0.00496772    0.00466230   -0.00699589
     atom   61 type  3   force =     0.00459277    0.00515374    0.00811210
     atom   62 type  3   force =     0.00020580    0.00067397    0.00224525
     atom   63 type  3   force =     0.00009819    0.00088136   -0.00278817
     atom   64 type  3   force =     0.00534790   -0.00297126    0.00760552
     atom   65 type  3   force =     0.00690399   -0.00375922   -0.00768552
     atom   66 type  3   force =    -0.00033796    0.00011996    0.00208016
     atom   67 type  3   force =    -0.00030556    0.00013577   -0.00137263
     atom   68 type  3   force =    -0.00593241    0.00346268    0.00664241
     atom   69 type  3   force =    -0.00537728    0.00373919   -0.00852795
     atom   70 type  3   force =     0.00012079   -0.00014253    0.00248085
     atom   71 type  3   force =     0.00089716   -0.00015117   -0.00241626
     atom   72 type  3   force =    -0.00401144   -0.00552304    0.00691736
     atom   73 type  3   force =    -0.00286754   -0.00599074   -0.00738239
     atom   74 type  3   force =     0.04275578   -0.01154411    0.00393999
     atom   75 type  3   force =     0.01027722    0.04238683   -0.00084451
     atom   76 type  3   force =     0.02221347   -0.03779277    0.00130472
     atom   77 type  3   force =    -0.01253547   -0.04325476   -0.00107373
     atom   78 type  5   force =    -0.04445877    0.00364021   -0.00392031
     atom   79 type  5   force =    -0.00241068   -0.04383335    0.00112646
     atom   80 type  5   force =    -0.01496530    0.04165308   -0.00124874
     atom   81 type  5   force =     0.00446170    0.04555929    0.00037593

     Total force =     0.386781     Total SCF correction =     0.000296

     number of scf cycles    =   2
     number of bfgs steps    =   1

     energy   old            =   -1552.6334812447 Ry
     energy   new            =   -1552.6401034360 Ry

     CASE: energy  _new < energy  _old

     new trust radius        =       0.0560644596 bohr
     new conv_thr            =       0.0000000100 Ry


ATOMIC_POSITIONS (angstrom)
C       14.553741398  10.578315977  16.143828222
C       15.913430299  10.756973704  16.203122776
C       16.138211285  12.186932218  16.175442649
C       17.414313398  12.812651122  16.232021344
C       17.614036757  14.209173797  16.214592520
C       18.916935345  14.825660539  16.277148104
C       18.730738775  16.182042591  16.212119197
C       17.307006443  16.409234321  16.129181051
C       16.720469320  17.691966188  16.078105520
C       15.322403260  17.920155796  16.011589789
C       13.132218967  17.582865111  15.888394906
C       11.646139758  15.571719091  15.820740837
C       11.864759064  16.969050631  15.819954123
C       11.950360322  13.377899161  15.841962902
C       10.527293463  13.604486602  15.723911753
C       10.339782794  14.964651816  15.732709969
C       13.944007601  11.883972465  16.056675146
C       12.556637399  12.099935390  15.929825410
C       14.699571604  19.224662778  15.960555073
C       13.345569280  19.010378984  15.878452753
C       17.653196433  18.873018140  16.100956066
C       18.165109325  19.410277371  14.906293309
C       18.056886035  19.449613678  17.318704291
C       19.047422019  20.496490497  14.924908557
C       18.938490819  20.536118556  17.343908259
C       19.429892244  21.071035400  16.145055527
C       18.643066057  11.947836656  16.310442472
C       19.179483366  11.568083114  17.553519872
C       19.304358341  11.528659970  15.141678486
C       20.338070248  10.786866823  17.629575072
C       20.463019048  10.747059746  15.211442945
C       20.979043549  10.363531330  16.457242182
C       10.651663609  17.856645634  15.727366070
C        9.988418420  18.295455197  16.887172800
C       10.154946541  18.270300514  14.477851999
C        8.865393755  19.126934808  16.804428051
C        9.032861173  19.102331998  14.388567240
C        8.389275326  19.542723425  15.553400084
C       11.667524170  10.885129077  15.884485877
C       11.144670890  10.329089891  17.066022654
C       11.356963353  10.264441998  14.660871762
C       10.332980164   9.189395601  17.028226374
C       10.544607506   9.125407084  14.616401901
C       10.020658421   8.588833224  15.800710314
N       14.932535731  12.851964394  16.089404297
N       16.647389749  15.193931589  16.127092458
N       14.353335995  16.937677644  15.972552520
N       12.614344018  14.589561704  15.887687157
Zn      14.637846573  14.894507088  16.030503640
H       19.498889992  16.944020962  16.217264133
H       19.856924111  14.299913459  16.362356765
H       16.657618462   9.967356336  16.255684895
H       14.034562437   9.628080128  16.162832010
H        9.741492569  12.860067460  15.637871634
H        9.383914622  15.473915094  15.687915074
H       12.580240942  19.773444108  15.815796763
H       15.195975980  20.188255876  15.984008561
H       17.863066964  18.969726704  13.950871729
H       17.669712891  19.040223774  18.257046741
H       19.433466812  20.905415218  13.988971846
H       19.238851793  20.976005624  18.297185383
H       18.678044608  11.890134935  18.471642825
H       18.900741065  11.819209731  14.166444010
H       20.741312910  10.497019190  18.602044281
H       20.962830388  10.425604461  14.295307011
H       10.361903235  17.980666970  17.866656793
H       10.659423105  17.936266170  13.565578869
H        8.362734762  19.461227954  17.714333110
H        8.661008762  19.417871273  13.411548125
H       11.379487624  10.799285522  18.026249003
H       11.757162199  10.684044672  13.732675790
H        9.932772203   8.770644128  17.953981625
H       10.309987637   8.656817492  13.658055728
H        8.285776803   7.698058639  15.677600183
H       21.912070148   8.649824032  16.559060168
H       19.826827235  22.984319898  16.143048724
H        7.528235483  21.295976428  15.499215728
O        9.224621198   7.441804736  15.761566593
O       22.145016182   9.597815654  16.529146796
O       20.323894908  22.143957341  16.167034457
O        7.258446552  20.357769595  15.465794368



     Writing output data file ZnTHPP_relax.save/
     Message from routine punch:
     wavefunctions written to file
     NEW-OLD atomic charge density approx. for the potential

     negative rho (up, down):  3.851E-02 0.000E+00

     total cpu time spent up to now is      919.2 secs

     Self-consistent Calculation

     iteration #  1     ecut=    35.00 Ry     beta= 0.70
     Davidson diagonalization with overlap
     ethr =  1.00E-06,  avg # of iterations =  6.0

     negative rho (up, down):  3.858E-02 0.000E+00

     total cpu time spent up to now is      961.2 secs

     total energy              =   -1552.67206227 Ry
     Harris-Foulkes estimate   =   -1552.68495745 Ry
     estimated scf accuracy    <       0.01465583 Ry

     iteration #  2     ecut=    35.00 Ry     beta= 0.70
     Davidson diagonalization with overlap
     ethr =  5.47E-06,  avg # of iterations =  3.0

     negative rho (up, down):  3.882E-02 0.000E+00

     total cpu time spent up to now is      992.1 secs

     total energy              =   -1552.67404326 Ry
     Harris-Foulkes estimate   =   -1552.67949824 Ry
     estimated scf accuracy    <       0.00996125 Ry

     iteration #  3     ecut=    35.00 Ry     beta= 0.70
     Davidson diagonalization with overlap
     ethr =  3.72E-06,  avg # of iterations =  3.0

     negative rho (up, down):  3.872E-02 0.000E+00

     total cpu time spent up to now is     1022.0 secs

     total energy              =   -1552.67625433 Ry
     Harris-Foulkes estimate   =   -1552.67716539 Ry
     estimated scf accuracy    <       0.00185702 Ry

     iteration #  4     ecut=    35.00 Ry     beta= 0.70
     Davidson diagonalization with overlap
     ethr =  6.93E-07,  avg # of iterations =  3.0

     negative rho (up, down):  3.868E-02 0.000E+00

     total cpu time spent up to now is     1051.3 secs

     total energy              =   -1552.67654930 Ry
     Harris-Foulkes estimate   =   -1552.67708705 Ry
     estimated scf accuracy    <       0.00158495 Ry

     iteration #  5     ecut=    35.00 Ry     beta= 0.70
     Davidson diagonalization with overlap
     ethr =  5.91E-07,  avg # of iterations =  2.0

     negative rho (up, down):  3.865E-02 0.000E+00

     total cpu time spent up to now is     1079.1 secs

     total energy              =   -1552.67680507 Ry
     Harris-Foulkes estimate   =   -1552.67682362 Ry
     estimated scf accuracy    <       0.00004150 Ry

     iteration #  6     ecut=    35.00 Ry     beta= 0.70
     Davidson diagonalization with overlap
     ethr =  1.55E-08,  avg # of iterations =  4.0

     negative rho (up, down):  3.864E-02 0.000E+00

     total cpu time spent up to now is     1109.8 secs

     total energy              =   -1552.67681709 Ry
     Harris-Foulkes estimate   =   -1552.67682135 Ry
     estimated scf accuracy    <       0.00000925 Ry

     iteration #  7     ecut=    35.00 Ry     beta= 0.70
     Davidson diagonalization with overlap
     ethr =  3.45E-09,  avg # of iterations =  3.0

     negative rho (up, down):  3.864E-02 0.000E+00

     total cpu time spent up to now is     1139.7 secs

     total energy              =   -1552.67681906 Ry
     Harris-Foulkes estimate   =   -1552.67681954 Ry
     estimated scf accuracy    <       0.00000108 Ry

     iteration #  8     ecut=    35.00 Ry     beta= 0.70
     Davidson diagonalization with overlap
     ethr =  4.01E-10,  avg # of iterations =  3.0

     negative rho (up, down):  3.864E-02 0.000E+00

     total cpu time spent up to now is     1170.0 secs

     total energy              =   -1552.67681929 Ry
     Harris-Foulkes estimate   =   -1552.67681937 Ry
     estimated scf accuracy    <       0.00000017 Ry

     iteration #  9     ecut=    35.00 Ry     beta= 0.70
     Davidson diagonalization with overlap
     ethr =  6.45E-11,  avg # of iterations =  3.0

     negative rho (up, down):  3.864E-02 0.000E+00

     total cpu time spent up to now is     1200.1 secs

     total energy              =   -1552.67681933 Ry
     Harris-Foulkes estimate   =   -1552.67681935 Ry
     estimated scf accuracy    <       0.00000004 Ry

     iteration # 10     ecut=    35.00 Ry     beta= 0.70
     Davidson diagonalization with overlap
     ethr =  1.66E-11,  avg # of iterations =  4.0

     negative rho (up, down):  3.864E-02 0.000E+00

     total cpu time spent up to now is     1229.9 secs

     total energy              =   -1552.67681934 Ry
     Harris-Foulkes estimate   =   -1552.67681934 Ry
     estimated scf accuracy    <       0.00000002 Ry

     iteration # 11     ecut=    35.00 Ry     beta= 0.70
     Davidson diagonalization with overlap
     ethr =  6.87E-12,  avg # of iterations =  3.0

     negative rho (up, down):  3.864E-02 0.000E+00

     total cpu time spent up to now is     1257.9 secs

     End of self-consistent calculation

          k = 0.0000 0.0000 0.0000 (318742 PWs)   bands (ev):

  -128.7961 -83.1668 -82.8789 -82.8765 -25.9905 -25.9894 -25.9873 -25.9784
   -23.7829 -23.5626 -23.5455 -23.3076 -21.3321 -21.2451 -21.2432 -21.2019
   -20.1457 -19.7050 -19.6961 -19.2414 -18.7221 -18.7040 -18.6937 -18.5557
   -18.4162 -18.4126 -18.4122 -18.4033 -18.0160 -17.8530 -17.8445 -17.4904
   -17.2300 -16.0304 -16.0154 -15.1896 -14.9964 -14.9917 -14.9906 -14.9816
   -14.7825 -14.7720 -14.6753 -14.3445 -14.0897 -13.6225 -13.6191 -13.4471
   -13.2885 -13.2848 -13.2793 -13.2564 -13.1749 -13.1572 -12.6104 -12.5959
   -12.4538 -12.2303 -12.2184 -11.9132 -11.4406 -11.4194 -11.4177 -11.3979
   -11.0568 -11.0204 -11.0071 -10.7654 -10.7609 -10.7573 -10.7486 -10.6220
   -10.2810 -10.2495 -10.2188 -10.2138 -10.1972 -10.1243 -10.1066 -10.1011
   -10.0684 -10.0591 -10.0331  -9.9698  -9.8942  -9.8365  -9.7704  -9.6667
    -9.6281  -9.5063  -9.4984  -9.3728  -9.3474  -9.0022  -8.9363  -8.8584
    -8.8078  -8.7816  -8.7209  -8.6057  -8.5940  -8.5649  -8.4960  -8.4948
    -8.4751  -8.4523  -8.4329  -8.3909  -8.2224  -8.1597  -7.5456  -7.5087
    -7.5026  -6.7823  -6.7812  -6.7775  -6.7702  -6.7043  -6.6955  -6.3298
    -6.3217  -6.2814  -6.2769  -6.1523  -5.9309  -5.8965  -5.8912  -5.8449
    -5.7763  -5.7697  -5.7434  -5.1860  -4.9398  -4.7480  -2.8327  -2.8195
    -1.5494  -1.2502  -1.2216  -1.2017  -1.1969  -1.1959  -1.1611  -1.1575
    -1.1120  -0.6229  -0.5649  -0.5580  -0.5294  -0.3858  -0.2715  -0.1331
    -0.1212  -0.1086  -0.0485  -0.0280  -0.0140  -0.0005   0.0373   0.0632
     0.0960

     the Fermi energy is    -3.6768 ev

!    total energy              =   -1552.67681934 Ry
     Harris-Foulkes estimate   =   -1552.67681934 Ry
     estimated scf accuracy    <          1.1E-09 Ry

     The total energy is the sum of the following terms:

     one-electron contribution =   -9151.15040637 Ry
     hartree contribution      =    4607.11592513 Ry
     xc contribution           =    -316.27565670 Ry
     ewald contribution        =    3617.04608086 Ry
     one-center paw contrib.   =    -309.41276227 Ry
     smearing contrib. (-TS)   =      -0.00000000 Ry

     convergence has been achieved in  11 iterations

     negative rho (up, down):  3.864E-02 0.000E+00

     Forces acting on atoms (cartesian axes, Ry/au):

     atom    1 type  1   force =     0.01625809   -0.00135086   -0.00028950
     atom    2 type  1   force =    -0.01861815    0.00418304   -0.00010977
     atom    3 type  1   force =     0.01858612    0.00500624    0.00060943
     atom    4 type  1   force =    -0.01924272   -0.00167553   -0.00111747
     atom    5 type  1   force =     0.00387448    0.00237587   -0.00011164
     atom    6 type  1   force =    -0.00290751    0.01640021   -0.00190069
     atom    7 type  1   force =    -0.00002379   -0.01760556    0.00127314
     atom    8 type  1   force =     0.00334566    0.00019583    0.00013178
     atom    9 type  1   force =    -0.01239631   -0.00677782   -0.00024403
     atom   10 type  1   force =     0.01174694    0.00140913    0.00065202
     atom   11 type  1   force =     0.00227940    0.00267760   -0.00000117
     atom   12 type  1   force =    -0.00298957    0.00869326    0.00007823
     atom   13 type  1   force =     0.00281427   -0.00843656    0.00015724
     atom   14 type  1   force =     0.00217286   -0.01229085    0.00026612
     atom   15 type  1   force =    -0.00007752    0.01777167    0.00164382
     atom   16 type  1   force =     0.00305120   -0.01961110   -0.00169378
     atom   17 type  1   force =     0.00455843   -0.00219710    0.00042147
     atom   18 type  1   force =    -0.00125233    0.01157925   -0.00069447
     atom   19 type  1   force =    -0.01758781   -0.00922596   -0.00140575
     atom   20 type  1   force =     0.01706684    0.00441202    0.00151347
     atom   21 type  1   force =    -0.00264401    0.00026701    0.00006626
     atom   22 type  1   force =    -0.00131383   -0.00047280    0.00445664
     atom   23 type  1   force =    -0.00120331   -0.00042250   -0.00482364
     atom   24 type  1   force =    -0.00186671   -0.00092308    0.00268301
     atom   25 type  1   force =    -0.00162843   -0.00091335   -0.00235612
     atom   26 type  1   force =    -0.00716436    0.00073026   -0.00050211
     atom   27 type  1   force =    -0.00172233   -0.00054454   -0.00015678
     atom   28 type  1   force =    -0.00086940   -0.00030562   -0.00442171
     atom   29 type  1   force =    -0.00160632    0.00046411    0.00489147
     atom   30 type  1   force =    -0.00191099    0.00007027   -0.00247902
     atom   31 type  1   force =    -0.00213353    0.00002709    0.00229822
     atom   32 type  1   force =    -0.00681250   -0.00271004   -0.00041404
     atom   33 type  1   force =     0.00164709    0.00170005   -0.00010316
     atom   34 type  1   force =     0.00060561   -0.00097563   -0.00456622
     atom   35 type  1   force =    -0.00000156   -0.00079541    0.00510899
     atom   36 type  1   force =     0.00263328   -0.00107372   -0.00248756
     atom   37 type  1   force =     0.00198940   -0.00095094    0.00248589
     atom   38 type  1   force =     0.00647903    0.00256905    0.00059987
     atom   39 type  1   force =     0.00039986    0.00076458   -0.00015459
     atom   40 type  1   force =     0.00121969    0.00064208   -0.00482217
     atom   41 type  1   force =     0.00030495    0.00091804    0.00511814
     atom   42 type  1   force =     0.00072956    0.00250802   -0.00246768
     atom   43 type  1   force =     0.00033018    0.00235770    0.00241873
     atom   44 type  1   force =    -0.00259768    0.00682107   -0.00031333
     atom   45 type  2   force =    -0.00412933   -0.00473012   -0.00039570
     atom   46 type  2   force =     0.00062343   -0.00160506    0.00098948
     atom   47 type  2   force =    -0.00612422    0.00273460   -0.00056579
     atom   48 type  2   force =    -0.00522212    0.00025724    0.00070617
     atom   49 type  4   force =    -0.00131659   -0.00053867   -0.00177318
     atom   50 type  3   force =     0.00198541    0.00561863    0.00125652
     atom   51 type  3   force =     0.00628526   -0.00468867   -0.00059280
     atom   52 type  3   force =     0.00498838    0.00524648    0.00140688
     atom   53 type  3   force =    -0.00587304   -0.00219378   -0.00182854
     atom   54 type  3   force =     0.00483990   -0.00602209    0.00266270
     atom   55 type  3   force =     0.00043798    0.00652244   -0.00199020
     atom   56 type  3   force =    -0.00677156    0.00071278    0.00012701
     atom   57 type  3   force =     0.00635847   -0.00019489   -0.00037783
     atom   58 type  3   force =     0.00183397    0.00180647    0.00294410
     atom   59 type  3   force =     0.00209768    0.00160051   -0.00273386
     atom   60 type  3   force =     0.00139749    0.00109176    0.00185209
     atom   61 type  3   force =     0.00162320    0.00096913   -0.00180086
     atom   62 type  3   force =     0.00255082   -0.00109370   -0.00269474
     atom   63 type  3   force =     0.00231681   -0.00096962    0.00323807
     atom   64 type  3   force =     0.00173732   -0.00055535   -0.00158182
     atom   65 type  3   force =     0.00166763   -0.00060238    0.00209363
     atom   66 type  3   force =    -0.00189258    0.00130855   -0.00289751
     atom   67 type  3   force =    -0.00240077    0.00135782    0.00286097
     atom   68 type  3   force =    -0.00151425    0.00066686   -0.00190157
     atom   69 type  3   force =    -0.00177166    0.00076560    0.00181283
     atom   70 type  3   force =    -0.00101716   -0.00237838   -0.00294617
     atom   71 type  3   force =    -0.00119600   -0.00213567    0.00273971
     atom   72 type  3   force =    -0.00048957   -0.00166012   -0.00192579
     atom   73 type  3   force =    -0.00082339   -0.00145287    0.00224364
     atom   74 type  3   force =     0.00684258   -0.00025358    0.00068223
     atom   75 type  3   force =     0.00003345    0.00665042    0.00019991
     atom   76 type  3   force =     0.00197095   -0.00636040    0.00035218
     atom   77 type  3   force =    -0.00048530   -0.00684543    0.00032369
     atom   78 type  5   force =     0.00113528    0.00379194   -0.00019847
     atom   79 type  5   force =    -0.00389067    0.00129376   -0.00086762
     atom   80 type  5   force =    -0.00335974   -0.00234134   -0.00035097
     atom   81 type  5   force =     0.00402968   -0.00105732   -0.00030592

     Total force =     0.075581     Total SCF correction =     0.000086

     number of scf cycles    =   3
     number of bfgs steps    =   2

     energy   old            =   -1552.6401034360 Ry
     energy   new            =   -1552.6768193396 Ry

     CASE: energy  _new < energy  _old

     new trust radius        =       0.0230485015 bohr
     new conv_thr            =       0.0000000100 Ry


ATOMIC_POSITIONS (angstrom)
C       14.561601632  10.576815304  16.143642994
C       15.904232730  10.758451561  16.203137054
C       16.149809018  12.190688245  16.175823913
C       17.402633385  12.811569861  16.231352555
C       17.616118852  14.210232510  16.214533330
C       18.916193745  14.833443732  16.276205263
C       18.731400678  16.173765861  16.212797986
C       17.308443634  16.409827760  16.129218786
C       16.712853953  17.687825172  16.077946408
C       15.330185994  17.920507506  16.012022264
C       13.132730071  17.584011000  15.888353499
C       11.644560494  15.577856162  15.820786705
C       11.866893357  16.963673078  15.820082994
C       11.952123588  13.369730288  15.842168401
C       10.526649633  13.613046943  15.724747764
C       10.340605109  14.954900845  15.731735668
C       13.945829516  11.882696129  16.056864565
C       12.556133021  12.107326700  15.929429081
C       14.690872954  19.220592839  15.959832193
C       13.353559794  19.013373532  15.879189136
C       17.652056182  18.873520795  16.100971986
C       18.164375952  19.410035421  14.909002646
C       18.056234203  19.449394040  17.315843580
C       19.046352327  20.495958357  14.926690965
C       18.937585896  20.535584801  17.342252792
C       19.425671842  21.071071408  16.144802572
C       18.642553863  11.947318681  16.310372615
C       19.179019059  11.567891608  17.550856098
C       19.303483079  11.528888821  15.144624386
C       20.336998062  10.786915963  17.627895452
C       20.461767418  10.747110295  15.213056287
C       20.974932313  10.362307490  16.456968704
C       10.652168755  17.857909395  15.727296121
C        9.988805906  18.294881430  16.884417838
C       10.154957501  18.269839862  14.480878830
C        8.866869425  19.126338983  16.802742574
C        9.033940940  19.101805520  14.390309448
C        8.393212458  19.543839913  15.553725934
C       11.667475244  10.885111087  15.884400105
C       11.145364241  10.329451050  17.063117435
C       11.357106052  10.264962484  14.663923588
C       10.333427488   9.190804031  17.026554408
C       10.544778202   9.126750198  14.618077144
C       10.019504777   8.592939509  15.800534941
N       14.930148015  12.849550576  16.089174058
N       16.647404965  15.192960900  16.127624251
N       14.349927695  16.938961740  15.972242447
N       12.611791761  14.589762562  15.888102623
Zn      14.637180976  14.894223825  16.029526790
H       19.499587455  16.946705545  16.217955988
H       19.859946508  14.297608004  16.361988149
H       16.660030348   9.970645731  16.256436307
H       14.031565562   9.627293979  16.161815320
H        9.744547168  12.857091507  15.639382898
H        9.384602687  15.477289162  15.686838306
H       12.576907459  19.773446454  15.815899494
H       15.199252227  20.187687709  15.983789010
H       17.864053413  18.970683117  13.952402096
H       17.670841763  19.041074580  18.255615819
H       19.434296491  20.906075928  13.989847792
H       19.239796061  20.976608759  18.296355174
H       18.679413182  11.889560844  18.470238548
H       18.901982835  11.818705394  14.168130551
H       20.742330596  10.496673356  18.601322968
H       20.963836184  10.425220609  14.296301178
H       10.360884702  17.981369069  17.865141281
H       10.658133211  17.936994940  13.567086512
H        8.361826792  19.461641600  17.713424963
H        8.659972251  19.418342234  13.412378033
H       11.378945362  10.798010236  18.024713935
H       11.756537194  10.682899150  13.734101221
H        9.932444430   8.769664929  17.953065006
H       10.309500144   8.655941647  13.659135279
H        8.290141432   7.697732236  15.678030086
H       21.912257834   8.654079536  16.559153384
H       19.828247956  22.980295284  16.143258705
H        7.527768751  21.291601957  15.499371288
O        9.224491654   7.443887587  15.761395576
O       22.142900942   9.597781704  16.528701402
O       20.321855171  22.143396361  16.166826204
O        7.260670484  20.357959079  15.465636352



     Writing output data file ZnTHPP_relax.save/
     Message from routine punch:
     wavefunctions written to file
     NEW-OLD atomic charge density approx. for the potential

     negative rho (up, down):  3.860E-02 0.000E+00

     total cpu time spent up to now is     1308.1 secs

     Self-consistent Calculation

     iteration #  1     ecut=    35.00 Ry     beta= 0.70
     Davidson diagonalization with overlap
     ethr =  1.00E-06,  avg # of iterations =  5.0

     negative rho (up, down):  3.863E-02 0.000E+00

     total cpu time spent up to now is     1345.2 secs

     total energy              =   -1552.67699739 Ry
     Harris-Foulkes estimate   =   -1552.67642765 Ry
     estimated scf accuracy    <       0.00176367 Ry

     iteration #  2     ecut=    35.00 Ry     beta= 0.70
     Davidson diagonalization with overlap
     ethr =  6.58E-07,  avg # of iterations =  3.0

     negative rho (up, down):  3.862E-02 0.000E+00

     total cpu time spent up to now is     1376.2 secs

     total energy              =   -1552.67725512 Ry
     Harris-Foulkes estimate   =   -1552.67761515 Ry
     estimated scf accuracy    <       0.00060076 Ry

     iteration #  3     ecut=    35.00 Ry     beta= 0.70
     Davidson diagonalization with overlap
     ethr =  2.24E-07,  avg # of iterations =  4.0

     negative rho (up, down):  3.863E-02 0.000E+00

     total cpu time spent up to now is     1407.6 secs

     total energy              =   -1552.67737881 Ry
     Harris-Foulkes estimate   =   -1552.67750837 Ry
     estimated scf accuracy    <       0.00028039 Ry

     iteration #  4     ecut=    35.00 Ry     beta= 0.70
     Davidson diagonalization with overlap
     ethr =  1.05E-07,  avg # of iterations =  3.0

     negative rho (up, down):  3.863E-02 0.000E+00

     total cpu time spent up to now is     1436.7 secs

     total energy              =   -1552.67742983 Ry
     Harris-Foulkes estimate   =   -1552.67747060 Ry
     estimated scf accuracy    <       0.00010892 Ry

     iteration #  5     ecut=    35.00 Ry     beta= 0.70
     Davidson diagonalization with overlap
     ethr =  4.06E-08,  avg # of iterations =  3.0

     negative rho (up, down):  3.862E-02 0.000E+00

     total cpu time spent up to now is     1465.1 secs

     total energy              =   -1552.67744900 Ry
     Harris-Foulkes estimate   =   -1552.67745436 Ry
     estimated scf accuracy    <       0.00001326 Ry

     iteration #  6     ecut=    35.00 Ry     beta= 0.70
     Davidson diagonalization with overlap
     ethr =  4.95E-09,  avg # of iterations =  4.0

     negative rho (up, down):  3.862E-02 0.000E+00

     total cpu time spent up to now is     1494.3 secs

     total energy              =   -1552.67745174 Ry
     Harris-Foulkes estimate   =   -1552.67745239 Ry
     estimated scf accuracy    <       0.00000154 Ry

     iteration #  7     ecut=    35.00 Ry     beta= 0.70
     Davidson diagonalization with overlap
     ethr =  5.74E-10,  avg # of iterations =  4.0

     negative rho (up, down):  3.862E-02 0.000E+00

     total cpu time spent up to now is     1524.1 secs

     total energy              =   -1552.67745205 Ry
     Harris-Foulkes estimate   =   -1552.67745210 Ry
     estimated scf accuracy    <       0.00000010 Ry

     iteration #  8     ecut=    35.00 Ry     beta= 0.70
     Davidson diagonalization with overlap
     ethr =  3.60E-11,  avg # of iterations =  4.0

     negative rho (up, down):  3.862E-02 0.000E+00

     total cpu time spent up to now is     1554.9 secs

     total energy              =   -1552.67745207 Ry
     Harris-Foulkes estimate   =   -1552.67745210 Ry
     estimated scf accuracy    <       0.00000006 Ry

     iteration #  9     ecut=    35.00 Ry     beta= 0.70
     Davidson diagonalization with overlap
     ethr =  2.33E-11,  avg # of iterations =  3.0

     negative rho (up, down):  3.862E-02 0.000E+00

     total cpu time spent up to now is     1583.2 secs

     End of self-consistent calculation

          k = 0.0000 0.0000 0.0000 (318742 PWs)   bands (ev):

  -128.7848 -83.1556 -82.8673 -82.8649 -26.0040 -26.0003 -25.9985 -25.9877
   -23.7717 -23.5487 -23.5343 -23.2921 -21.3510 -21.2636 -21.2619 -21.2208
   -20.1743 -19.7241 -19.7197 -19.2416 -18.7760 -18.7488 -18.7378 -18.5937
   -18.4199 -18.4155 -18.4152 -18.4056 -18.0364 -17.8768 -17.8653 -17.4939
   -17.2667 -16.0484 -16.0407 -15.1808 -15.0005 -14.9968 -14.9961 -14.9868
   -14.7874 -14.7767 -14.6817 -14.3287 -14.1568 -13.6116 -13.6059 -13.4440
   -13.2970 -13.2922 -13.2863 -13.2614 -13.1657 -13.1251 -12.5946 -12.5821
   -12.4429 -12.2378 -12.2248 -11.8967 -11.4476 -11.4263 -11.4243 -11.4044
   -11.0625 -11.0376 -11.0092 -10.7588 -10.7537 -10.7517 -10.7429 -10.6441
   -10.2636 -10.2316 -10.2188 -10.2127 -10.1933 -10.1188 -10.0999 -10.0946
   -10.0767 -10.0580 -10.0398  -9.9782  -9.9205  -9.8899  -9.7223  -9.6749
    -9.6336  -9.5099  -9.5008  -9.3746  -9.3159  -8.9898  -8.9193  -8.8780
    -8.8555  -8.8142  -8.7371  -8.5900  -8.5870  -8.5638  -8.4909  -8.4886
    -8.4702  -8.4540  -8.4359  -8.3832  -8.2147  -8.1208  -7.5414  -7.5290
    -7.4758  -6.7849  -6.7836  -6.7793  -6.7716  -6.7318  -6.7291  -6.3305
    -6.3232  -6.2853  -6.2800  -6.2020  -5.9441  -5.9118  -5.9058  -5.8616
    -5.8088  -5.7983  -5.7807  -5.1690  -4.9234  -4.7734  -2.8124  -2.8103
    -1.4910  -1.2490  -1.2170  -1.1981  -1.1927  -1.1750  -1.1406  -1.1366
    -1.0914  -0.6189  -0.5578  -0.5500  -0.5202  -0.3819  -0.2691  -0.1310
    -0.1203  -0.1079  -0.0475  -0.0287  -0.0146   0.0019   0.0382   0.0634
     0.0962

     the Fermi energy is    -3.6762 ev

!    total energy              =   -1552.67745208 Ry
     Harris-Foulkes estimate   =   -1552.67745209 Ry
     estimated scf accuracy    <          9.0E-09 Ry

     The total energy is the sum of the following terms:

     one-electron contribution =   -9154.76330906 Ry
     hartree contribution      =    4608.91811902 Ry
     xc contribution           =    -316.35243471 Ry
     ewald contribution        =    3618.93691857 Ry
     one-center paw contrib.   =    -309.41674590 Ry
     smearing contrib. (-TS)   =      -0.00000000 Ry

     convergence has been achieved in   9 iterations

     negative rho (up, down):  3.862E-02 0.000E+00

     Forces acting on atoms (cartesian axes, Ry/au):

     atom    1 type  1   force =    -0.01625562   -0.00618546   -0.00138165
     atom    2 type  1   force =     0.02339696    0.00096790    0.00169591
     atom    3 type  1   force =    -0.02427854   -0.00825850   -0.00116228
     atom    4 type  1   force =     0.01748649    0.00738939    0.00069010
     atom    5 type  1   force =    -0.00388908    0.00169484   -0.00053861
     atom    6 type  1   force =     0.01023133   -0.02260108    0.00063048
     atom    7 type  1   force =     0.00223273    0.02372024   -0.00043698
     atom    8 type  1   force =    -0.00100404   -0.00698361    0.00032458
     atom    9 type  1   force =     0.01087981    0.00094973    0.00064589
     atom   10 type  1   force =    -0.01819810   -0.00174821   -0.00091786
     atom   11 type  1   force =     0.00549258   -0.00007099    0.00031791
     atom   12 type  1   force =     0.00070566   -0.01590908    0.00015618
     atom   13 type  1   force =    -0.00201154    0.00968416   -0.00034252
     atom   14 type  1   force =    -0.00411888    0.01893850   -0.00022754
     atom   15 type  1   force =    -0.00029888   -0.02195516    0.00054088
     atom   16 type  1   force =    -0.00800436    0.01921840   -0.00135387
     atom   17 type  1   force =     0.00504967    0.00267681   -0.00009793
     atom   18 type  1   force =     0.00427145   -0.01267427    0.00055698
     atom   19 type  1   force =     0.02375216    0.00883848    0.00105737
     atom   20 type  1   force =    -0.02028575    0.00146612   -0.00097116
     atom   21 type  1   force =    -0.00739485   -0.00533241   -0.00030666
     atom   22 type  1   force =    -0.00117955   -0.00060060   -0.00014866
     atom   23 type  1   force =    -0.00132871   -0.00031041    0.00029040
     atom   24 type  1   force =    -0.00164697   -0.00023407   -0.00181594
     atom   25 type  1   force =    -0.00185730   -0.00011318    0.00144964
     atom   26 type  1   force =    -0.00318531    0.00334217   -0.00002395
     atom   27 type  1   force =    -0.00930315    0.00282619   -0.00016169
     atom   28 type  1   force =    -0.00132167    0.00013446    0.00017670
     atom   29 type  1   force =    -0.00106541    0.00029141   -0.00037238
     atom   30 type  1   force =    -0.00174707   -0.00054152    0.00160408
     atom   31 type  1   force =    -0.00180778   -0.00044312   -0.00166349
     atom   32 type  1   force =    -0.00212841   -0.00419630   -0.00010012
     atom   33 type  1   force =     0.00641182   -0.00363601    0.00067052
     atom   34 type  1   force =     0.00060869   -0.00052616    0.00061919
     atom   35 type  1   force =     0.00050585   -0.00033018   -0.00062278
     atom   36 type  1   force =     0.00105210    0.00054687    0.00197253
     atom   37 type  1   force =     0.00126952    0.00041606   -0.00149382
     atom   38 type  1   force =     0.00237604    0.00379725   -0.00008617
     atom   39 type  1   force =     0.00373493    0.00703422    0.00013988
     atom   40 type  1   force =     0.00066223    0.00065756    0.00053509
     atom   41 type  1   force =     0.00071465    0.00056008   -0.00070301
     atom   42 type  1   force =    -0.00070376    0.00163870    0.00154066
     atom   43 type  1   force =    -0.00027830    0.00154083   -0.00143670
     atom   44 type  1   force =    -0.00399777    0.00243631   -0.00040282
     atom   45 type  2   force =     0.00347188   -0.00164181   -0.00003465
     atom   46 type  2   force =     0.00371094    0.00036181    0.00086823
     atom   47 type  2   force =     0.00145589    0.00197230   -0.00010491
     atom   48 type  2   force =    -0.00301983   -0.00072972    0.00064771
     atom   49 type  4   force =    -0.00279822   -0.00099994   -0.00169159
     atom   50 type  3   force =    -0.00423089   -0.00245676    0.00127739
     atom   51 type  3   force =    -0.00259886    0.00171142   -0.00148271
     atom   52 type  3   force =    -0.00195861    0.00962261    0.00100651
     atom   53 type  3   force =    -0.00102359    0.00222830   -0.00179690
     atom   54 type  3   force =     0.00779508    0.00006250    0.00303493
     atom   55 type  3   force =     0.00621712    0.00043834   -0.00180237
     atom   56 type  3   force =     0.00033741   -0.00337668    0.00067355
     atom   57 type  3   force =    -0.00015124   -0.00886991   -0.00070219
     atom   58 type  3   force =     0.00168098    0.00158948    0.00302622
     atom   59 type  3   force =     0.00196697    0.00144361   -0.00295304
     atom   60 type  3   force =     0.00030303   -0.00013740    0.00376227
     atom   61 type  3   force =     0.00075910   -0.00023501   -0.00353558
     atom   62 type  3   force =     0.00233240   -0.00103112   -0.00280214
     atom   63 type  3   force =     0.00207037   -0.00085909    0.00338896
     atom   64 type  3   force =     0.00059509    0.00023026   -0.00343937
     atom   65 type  3   force =     0.00031304    0.00025085    0.00371951
     atom   66 type  3   force =    -0.00181676    0.00104461   -0.00322383
     atom   67 type  3   force =    -0.00236692    0.00111578    0.00322847
     atom   68 type  3   force =    -0.00000175   -0.00040252   -0.00384464
     atom   69 type  3   force =    -0.00063465   -0.00020069    0.00372829
     atom   70 type  3   force =    -0.00081789   -0.00220357   -0.00323225
     atom   71 type  3   force =    -0.00117660   -0.00206302    0.00326867
     atom   72 type  3   force =     0.00058163   -0.00036843   -0.00370608
     atom   73 type  3   force =    -0.00012564   -0.00020520    0.00387423
     atom   74 type  3   force =    -0.00207999    0.00203713   -0.00010448
     atom   75 type  3   force =    -0.00190901   -0.00180358    0.00049089
     atom   76 type  3   force =    -0.00237936    0.00125986    0.00014617
     atom   77 type  3   force =     0.00201595    0.00225220    0.00066038
     atom   78 type  5   force =     0.01008993    0.00242570    0.00061197
     atom   79 type  5   force =    -0.00270590    0.00964735   -0.00113882
     atom   80 type  5   force =     0.00026010   -0.01007949   -0.00018269
[...]
O       20.023884855  22.279032356  15.942958050
O        7.485696147  20.530996906  15.287249960



     Writing output data file ZnTHPP_relax.save/
     Message from routine punch:
     wavefunctions written to file
     NEW-OLD atomic charge density approx. for the potential

     negative rho (up, down):  3.851E-02 0.000E+00

     total cpu time spent up to now is    17147.9 secs

     Self-consistent Calculation

     iteration #  1     ecut=    35.00 Ry     beta= 0.70
     Davidson diagonalization with overlap
     ethr =  1.00E-06,  avg # of iterations =  4.0

     negative rho (up, down):  3.853E-02 0.000E+00

     total cpu time spent up to now is    17183.3 secs

     total energy              =   -1552.73458052 Ry
     Harris-Foulkes estimate   =   -1552.73611358 Ry
     estimated scf accuracy    <       0.00046819 Ry

     iteration #  2     ecut=    35.00 Ry     beta= 0.70
     Davidson diagonalization with overlap
     ethr =  1.75E-07,  avg # of iterations =  3.0

     negative rho (up, down):  3.853E-02 0.000E+00

     total cpu time spent up to now is    17213.6 secs

     total energy              =   -1552.73461886 Ry
     Harris-Foulkes estimate   =   -1552.73471730 Ry
     estimated scf accuracy    <       0.00016981 Ry

     iteration #  3     ecut=    35.00 Ry     beta= 0.70
     Davidson diagonalization with overlap
     ethr =  6.34E-08,  avg # of iterations =  3.0

     negative rho (up, down):  3.854E-02 0.000E+00

     total cpu time spent up to now is    17244.4 secs

     total energy              =   -1552.73466195 Ry
     Harris-Foulkes estimate   =   -1552.73469427 Ry
     estimated scf accuracy    <       0.00007208 Ry

     iteration #  4     ecut=    35.00 Ry     beta= 0.70
     Davidson diagonalization with overlap
     ethr =  2.69E-08,  avg # of iterations =  4.0

     negative rho (up, down):  3.854E-02 0.000E+00

     total cpu time spent up to now is    17274.3 secs

     total energy              =   -1552.73467431 Ry
     Harris-Foulkes estimate   =   -1552.73468320 Ry
     estimated scf accuracy    <       0.00002101 Ry

     iteration #  5     ecut=    35.00 Ry     beta= 0.70
     Davidson diagonalization with overlap
     ethr =  7.84E-09,  avg # of iterations =  4.0

     negative rho (up, down):  3.854E-02 0.000E+00

     total cpu time spent up to now is    17303.6 secs

     total energy              =   -1552.73467884 Ry
     Harris-Foulkes estimate   =   -1552.73467990 Ry
     estimated scf accuracy    <       0.00000272 Ry

     iteration #  6     ecut=    35.00 Ry     beta= 0.70
     Davidson diagonalization with overlap
     ethr =  1.02E-09,  avg # of iterations =  3.0

     negative rho (up, down):  3.854E-02 0.000E+00

     total cpu time spent up to now is    17333.1 secs

     total energy              =   -1552.73467931 Ry
     Harris-Foulkes estimate   =   -1552.73467956 Ry
     estimated scf accuracy    <       0.00000057 Ry

     iteration #  7     ecut=    35.00 Ry     beta= 0.70
     Davidson diagonalization with overlap
     ethr =  2.11E-10,  avg # of iterations =  3.0

     negative rho (up, down):  3.854E-02 0.000E+00

     total cpu time spent up to now is    17362.0 secs

     total energy              =   -1552.73467942 Ry
     Harris-Foulkes estimate   =   -1552.73467947 Ry
     estimated scf accuracy    <       0.00000015 Ry

     iteration #  8     ecut=    35.00 Ry     beta= 0.70
     Davidson diagonalization with overlap
     ethr =  5.63E-11,  avg # of iterations =  3.0

     negative rho (up, down):  3.854E-02 0.000E+00

     total cpu time spent up to now is    17390.7 secs

     total energy              =   -1552.73467945 Ry
     Harris-Foulkes estimate   =   -1552.73467945 Ry
     estimated scf accuracy    <       0.00000002 Ry

     iteration #  9     ecut=    35.00 Ry     beta= 0.70
     Davidson diagonalization with overlap
     ethr =  5.91E-12,  avg # of iterations =  3.0

     negative rho (up, down):  3.854E-02 0.000E+00

     total cpu time spent up to now is    17419.9 secs

     End of self-consistent calculation

          k = 0.0000 0.0000 0.0000 (318742 PWs)   bands (ev):

  -128.6888 -83.0607 -82.7709 -82.7688 -26.5639 -26.5463 -26.5340 -26.4162
   -23.7346 -23.5078 -23.5003 -23.2555 -21.3018 -21.2178 -21.2171 -21.1773
   -20.1126 -19.6669 -19.6638 -19.2084 -18.6568 -18.6448 -18.6387 -18.4891
   -18.4213 -18.4093 -18.4076 -18.3977 -17.9829 -17.8086 -17.8040 -17.4103
   -17.1975 -15.9889 -15.9785 -15.4264 -15.2802 -15.2637 -15.2172 -14.9328
   -14.6688 -14.6637 -14.5752 -14.2620 -14.0240 -13.5563 -13.5527 -13.3971
   -13.3316 -13.3291 -13.3283 -13.3184 -13.0847 -13.0635 -12.5149 -12.4991
   -12.3574 -12.1944 -12.1811 -11.9923 -11.5657 -11.5322 -11.5081 -11.3852
   -10.9329 -10.9196 -10.8901 -10.5805 -10.5438 -10.5008 -10.4470 -10.3942
   -10.1813 -10.1791 -10.1552 -10.1435 -10.1400 -10.1144 -10.0771 -10.0680
   -10.0493  -9.9818  -9.9086  -9.8866  -9.8794  -9.8261  -9.6574  -9.6406
    -9.6164  -9.4588  -9.4481  -9.3919  -9.3003  -9.2932  -9.1977  -9.1597
    -9.0193  -8.8495  -8.7224  -8.7084  -8.6867  -8.6669  -8.6577  -8.4633
    -8.4577  -8.2089  -8.1018  -8.0320  -8.0222  -8.0068  -7.9673  -7.9642
    -7.8371  -7.6408  -7.4228  -7.4129  -7.3983  -6.6203  -6.6169  -6.2741
    -6.2646  -6.2223  -6.2161  -6.0853  -5.6982  -5.6907  -5.6785  -5.4316
    -5.3718  -5.3510  -5.3217  -5.0649  -4.8268  -4.6348  -2.7009  -2.6985
    -1.4120  -1.1799  -1.1491  -1.1257  -1.1141  -0.8983  -0.8378  -0.8169
    -0.7698  -0.6408  -0.6137  -0.5976  -0.5572  -0.3473  -0.2125  -0.1095
    -0.0925  -0.0834  -0.0499   0.0081   0.0166   0.0212   0.0349   0.0621
     0.0628

     the Fermi energy is    -3.7056 ev

!    total energy              =   -1552.73467945 Ry
     Harris-Foulkes estimate   =   -1552.73467945 Ry
     estimated scf accuracy    <          3.6E-09 Ry

     The total energy is the sum of the following terms:

     one-electron contribution =   -9204.46478955 Ry
     hartree contribution      =    4634.03538435 Ry
     xc contribution           =    -316.62661053 Ry
     ewald contribution        =    3643.74474698 Ry
     one-center paw contrib.   =    -309.42341070 Ry
     smearing contrib. (-TS)   =      -0.00000000 Ry

     convergence has been achieved in   9 iterations

     negative rho (up, down):  3.854E-02 0.000E+00

     Forces acting on atoms (cartesian axes, Ry/au):

     atom    1 type  1   force =    -0.00154783   -0.00090916    0.00029188
     atom    2 type  1   force =     0.00215005   -0.00146879    0.00060730
     atom    3 type  1   force =    -0.00110045    0.00043707   -0.00062304
     atom    4 type  1   force =    -0.00240704    0.00019099   -0.00348773
     atom    5 type  1   force =    -0.00040222    0.00068614   -0.00048537
     atom    6 type  1   force =     0.00057504   -0.00076711    0.00048687
     atom    7 type  1   force =    -0.00120725    0.00006116    0.00006744
     atom    8 type  1   force =    -0.00029255    0.00113233   -0.00053811
     atom    9 type  1   force =    -0.00067500    0.00136887   -0.00274453
     atom   10 type  1   force =    -0.00092095    0.00074236   -0.00018428
     atom   11 type  1   force =    -0.00000809   -0.00241475   -0.00019430
     atom   12 type  1   force =    -0.00019157   -0.00003088    0.00000866
     atom   13 type  1   force =     0.00005188   -0.00091156   -0.00221714
     atom   14 type  1   force =     0.00108005    0.00204211   -0.00047489
     atom   15 type  1   force =    -0.00152287   -0.00109133   -0.00002084
     atom   16 type  1   force =    -0.00024933   -0.00263640    0.00046994
     atom   17 type  1   force =    -0.00183510    0.00113986    0.00016597
     atom   18 type  1   force =    -0.00057520    0.00237582   -0.00228124
     atom   19 type  1   force =    -0.00091648    0.00080851   -0.00002863
     atom   20 type  1   force =     0.00029258   -0.00147781    0.00038946
     atom   21 type  1   force =     0.00172067    0.00048343    0.00081722
     atom   22 type  1   force =     0.00132963   -0.00237650   -0.00093270
     atom   23 type  1   force =    -0.00052589   -0.00285583    0.00056881
     atom   24 type  1   force =     0.00058925    0.00327686    0.00154739
     atom   25 type  1   force =     0.00042392    0.00184854   -0.00014274
     atom   26 type  1   force =    -0.00410889   -0.00087436   -0.00062403
     atom   27 type  1   force =     0.00158389   -0.00050897    0.00189867
     atom   28 type  1   force =    -0.00422771    0.00401522    0.00118143
     atom   29 type  1   force =    -0.00343825    0.00114605   -0.00170601
     atom   30 type  1   force =     0.00366713   -0.00170935    0.00035015
     atom   31 type  1   force =     0.00384189   -0.00318687    0.00197782
     atom   32 type  1   force =     0.00287283    0.00098602   -0.00193039
     atom   33 type  1   force =     0.00000100   -0.00016177    0.00115826
     atom   34 type  1   force =    -0.00042826   -0.00023681   -0.00003317
     atom   35 type  1   force =    -0.00185781    0.00195195   -0.00086661
     atom   36 type  1   force =     0.00109436   -0.00155881    0.00011561
     atom   37 type  1   force =     0.00128529   -0.00060641    0.00439774
     atom   38 type  1   force =    -0.00285505   -0.00006544   -0.00197693
     atom   39 type  1   force =    -0.00133432    0.00096814   -0.00155757
     atom   40 type  1   force =     0.00161737   -0.00076540    0.00149968
     atom   41 type  1   force =     0.00278074   -0.00025031    0.00171673
     atom   42 type  1   force =     0.00044208   -0.00192465   -0.00467008
     atom   43 type  1   force =    -0.00098816   -0.00228240   -0.00047975
     atom   44 type  1   force =    -0.00138705    0.00380814    0.00136631
     atom   45 type  2   force =    -0.00203845    0.00065785    0.00153706
     atom   46 type  2   force =     0.00073533    0.00124279    0.00147243
     atom   47 type  2   force =     0.00040958   -0.00097882    0.00132516
     atom   48 type  2   force =     0.00232490    0.00249019    0.00149732
     atom   49 type  4   force =     0.00751499    0.00187984   -0.00027076
     atom   50 type  3   force =    -0.00201479   -0.00051574   -0.00011666
     atom   51 type  3   force =    -0.00051859   -0.00074168    0.00055571
     atom   52 type  3   force =     0.00345614   -0.00158272   -0.00015858
     atom   53 type  3   force =     0.00019787    0.00019729    0.00060593
     atom   54 type  3   force =    -0.00351671   -0.00420973   -0.00100594
     atom   55 type  3   force =     0.00062743    0.00259820    0.00045453
     atom   56 type  3   force =    -0.00043429   -0.00207180    0.00002175
     atom   57 type  3   force =     0.00225358    0.00181869   -0.00014362
     atom   58 type  3   force =    -0.00103224    0.00151271    0.00046487
     atom   59 type  3   force =    -0.00122060    0.00115073    0.00078256
     atom   60 type  3   force =    -0.00015766   -0.00031329   -0.00131246
     atom   61 type  3   force =    -0.00127537   -0.00041719   -0.00012725
     atom   62 type  3   force =    -0.00119351   -0.00195922    0.00125654
     atom   63 type  3   force =    -0.00030494   -0.00219713    0.00098065
     atom   64 type  3   force =    -0.00177562    0.00042523   -0.00279374
     atom   65 type  3   force =    -0.00141804    0.00133707    0.00000049
     atom   66 type  3   force =     0.00194522    0.00173424    0.00007000
     atom   67 type  3   force =     0.00117883    0.00249598    0.00185645
     atom   68 type  3   force =     0.00129809   -0.00031856   -0.00026763
     atom   69 type  3   force =     0.00041628   -0.00065485   -0.00011509
     atom   70 type  3   force =    -0.00170433   -0.00012611    0.00064557
     atom   71 type  3   force =     0.00020998   -0.00029286   -0.00054448
     atom   72 type  3   force =    -0.00294511    0.00035263   -0.00090492
     atom   73 type  3   force =    -0.00021737    0.00063027   -0.00174965
     atom   74 type  3   force =     0.00045912   -0.00345409    0.00893650
     atom   75 type  3   force =     0.00049817   -0.00170754    0.00258714
     atom   76 type  3   force =     0.00308077    0.00258598    0.00375247
     atom   77 type  3   force =    -0.00068284    0.00107309    0.00125776
     atom   78 type  5   force =     0.00146421    0.00243096   -0.00450995
     atom   79 type  5   force =     0.00038744    0.00037525   -0.00183102
     atom   80 type  5   force =     0.00091816   -0.00236660   -0.00335908
     atom   81 type  5   force =     0.00067804   -0.00147895   -0.00373330

     Total force =     0.028670     Total SCF correction =     0.000160

     number of scf cycles    =  50
     number of bfgs steps    =  48

     energy   old            =   -1552.7338646000 Ry
     energy   new            =   -1552.7346794477 Ry

     CASE: energy  _new < energy  _old

     new trust radius        =       0.0811175767 bohr
     new conv_thr            =       0.0000000081 Ry


ATOMIC_POSITIONS (angstrom)
C       14.605785702  10.586297586  16.100929710
C       15.953430042  10.787075732  16.185417034
C       16.172122808  12.216216996  16.186094767
C       17.435081029  12.833045819  16.238959508
C       17.655620953  14.221151778  16.223405167
C       18.961304480  14.843828417  16.268820399
C       18.758492968  16.192866426  16.243961494
C       17.327500632  16.401285564  16.177643983
C       16.708204198  17.663523172  16.122091201
C       15.321486462  17.887371062  16.037126242
C       13.134696707  17.573062602  15.884590946
C       11.652889920  15.561638251  15.815460348
C       11.874270811  16.951855297  15.795476963
C       11.977985658  13.372493073  15.917000578
C       10.553758231  13.587812095  15.809042269
C       10.352775809  14.936134329  15.738485289
C       13.987316010  11.891800942  16.055054488
C       12.600369127  12.110092357  15.976001586
C       14.707732707  19.193995265  15.961411134
C       13.359697772  19.003344716  15.867238918
C       17.604743356  18.862658036  16.102179684
C       18.111381838  19.353366943  14.886953407
C       17.973446261  19.520148510  17.283331833
C       18.928062694  20.480537142  14.843378873
C       18.791630610  20.648960698  17.255678485
C       19.251874588  21.147263497  16.030258161
C       18.634684562  11.941460494  16.286011053
C       19.124658055  11.456405608  17.506326265
C       19.292469180  11.556836883  15.105236425
C       20.217181402  10.591275291  17.558338306
C       20.379897023  10.689309911  15.139276535
C       20.842634996  10.199816137  16.366925447
C       10.678756445  17.848023885  15.669144979
C       10.042287791  18.353511764  16.811599064
C       10.182767423  18.226120532  14.410545449
C        8.973765624  19.245454494  16.707767748
C        9.118232582  19.122322390  14.291996770
C        8.520809335  19.643795407  15.445886687
C       11.713248372  10.905135510  15.901523054
C       11.115174617  10.363695199  17.046145559
C       11.454161743  10.292086790  14.665392853
C       10.264723120   9.257579571  16.967963169
C       10.607529231   9.190792316  14.572505225
C        9.992705894   8.681830757  15.719404088
N       14.959374930  12.867544372  16.105389472
N       16.677488073  15.188385998  16.165311734
N       14.343809582  16.917010328  15.990912433
N       12.624646481  14.588987272  15.921664726
Zn      14.633002336  14.887194028  16.050430706
H       19.514535317  16.974426744  16.267042416
H       19.910668312  14.317129925  16.308845997
H       16.729990493  10.030479291  16.241358580
H       14.075532388   9.639538571  16.068360379
H        9.798725636  12.808648303  15.791157480
H        9.401595535  15.453143405  15.640203396
H       12.593010110  19.770176529  15.789302189
H       15.240677989  20.140504302  15.976209971
H       17.865715852  18.831901229  13.960221260
H       17.623171133  19.131841888  18.240987350
H       19.308245127  20.872533128  13.898738413
H       19.068809273  21.157729846  18.184955409
H       18.645342390  11.781924941  18.430650368
H       18.944696181  11.954025754  14.149207188
H       20.589334505  10.227480220  18.522753661
H       20.894435542  10.372255515  14.230579565
H       10.380244880  18.032497316  17.798101506
H       10.632283693  17.804894297  13.508634286
H        8.485400606  19.631541169  17.608110513
H        8.736623585  19.427658391  13.317172295
H       11.331805188  10.813125915  18.017815913
H       11.912260815  10.699971960  13.762865860
H        9.833746611   8.835158080  17.881441340
H       10.387374183   8.721768946  13.612054644
H        8.491610966   7.610464022  16.277574823
H       22.175869089   9.140158351  17.247471577
H       20.107745929  22.647664790  16.846395618
H        7.144101377  20.770679042  16.163197347
O        9.144150155   7.611394917  15.549133053
O       21.918483968   9.349869908  16.334488810
O       20.008673143  22.285876395  15.941903421
O        7.487563859  20.531529667  15.282971161



     Writing output data file ZnTHPP_relax.save/
     Message from routine punch:
     wavefunctions written to file
     NEW-OLD atomic charge density approx. for the potential

     negative rho (up, down):  3.844E-02 0.000E+00

     Writing output data file ZnTHPP_relax.save/
 
     init_run     :     33.51s CPU     35.80s WALL (       1 calls)
     electrons    :  13807.47s CPU  14962.94s WALL (      50 calls)
     update_pot   :    726.70s CPU    738.64s WALL (      50 calls)
     forces       :   1256.94s CPU   1357.27s WALL (      50 calls)

     Called by init_run:
     wfcinit      :      7.28s CPU      7.56s WALL (       1 calls)
     potinit      :      5.64s CPU      5.86s WALL (       1 calls)
     hinit0       :      9.54s CPU     10.01s WALL (       1 calls)

     Called by electrons:
     c_bands      :   6362.88s CPU   6439.19s WALL (     497 calls)
     sum_band     :   4518.86s CPU   4956.44s WALL (     497 calls)
     v_of_rho     :    888.60s CPU    968.78s WALL (     535 calls)
     newd         :   1889.56s CPU   2465.67s WALL (     535 calls)
     PAW_pot      :     87.08s CPU     87.54s WALL (     585 calls)
     mix_rho      :    203.44s CPU    220.46s WALL (     497 calls)

     Called by c_bands:
     init_us_2    :     60.56s CPU     61.01s WALL (    1045 calls)
     regterg      :   6251.46s CPU   6327.22s WALL (     497 calls)

     Called by sum_band:
     sum_band:bec :      0.17s CPU      0.17s WALL (     547 calls)
     addusdens    :   2943.19s CPU   3362.43s WALL (     497 calls)

     Called by *egterg:
     h_psi        :   5393.27s CPU   5432.30s WALL (    2137 calls)
     s_psi        :    170.01s CPU    170.71s WALL (    2137 calls)
     g_psi        :     14.58s CPU     14.71s WALL (    1639 calls)
     rdiaghg      :     40.03s CPU     42.60s WALL (    2074 calls)

     Called by h_psi:
     h_psi:pot    :   5366.08s CPU   5404.87s WALL (    2137 calls)
     h_psi:calbec :    169.20s CPU    170.60s WALL (    2137 calls)
     vloc_psi     :   5021.02s CPU   5057.73s WALL (    2137 calls)
     add_vuspsi   :    175.82s CPU    176.52s WALL (    2137 calls)

     General routines
     calbec       :    258.74s CPU    260.90s WALL (    2884 calls)
     fft          :   1077.14s CPU   1171.86s WALL (    6298 calls)
     ffts         :     36.21s CPU     38.05s WALL (    1032 calls)
     fftw         :   3643.88s CPU   3674.38s WALL (  249145 calls)
     interpolate  :    109.39s CPU    115.99s WALL (     535 calls)
     davcio       :      0.90s CPU     58.89s WALL (      50 calls)
 
     Parallel routines
     fft_scatt_xy :   1011.14s CPU   1019.65s WALL (  256475 calls)
     fft_scatt_yz :   1414.10s CPU   1482.66s WALL (  256475 calls)
 
     PWSCF        :      4h27m CPU      4h51m WALL

 
   This run was terminated on:  18:20:22  28May2021            

=------------------------------------------------------------------------------=
   JOB DONE.
=------------------------------------------------------------------------------=
