
Host: cpn-p27-21.compute.cbls.ccr.buffalo.edu

Timers On : Wed Jun 16 16:31:15 2021
Timers Off: Wed Jun 16 16:33:01 2021

Wall Time:      105.17 seconds

                                                       Time (seconds)
Module                                       User      System        Wall        Calls

--------------------------------------------------------------------------------------

**************************************************************************************
