
     Program PWSCF v.6.2 (svn rev. 14038) starts on 21Jun2021 at 20:39:43 

     This program is part of the open-source Quantum ESPRESSO suite
     for quantum simulation of materials; please cite
         "P. Giannozzi et al., J. Phys.:Condens. Matter 21 395502 (2009);
         "P. Giannozzi et al., J. Phys.:Condens. Matter 29 465901 (2017);
          URL http://www.quantum-espresso.org", 
     in publications or presentations arising from this work. More details at
     http://www.quantum-espresso.org/quote

     Parallel version (MPI), running on    12 processors

     MPI processes distributed on     1 nodes
     R & G space division:  proc/nbgrp/npool/nimage =      12
     Waiting for input...
     Reading input from standard input

     Current dimensions of program PWSCF are:
     Max number of different atomic species (ntypx) = 10
     Max number of k-points (npk) =  40000
     Max angular momentum in pseudopotentials (lmaxx) =  3
               file Ti.pbe-mt_fhi.UPF: wavefunction(s)  4f renormalized

     gamma-point specific algorithms are used

     Subspace diagonalization in iterative solution of the eigenvalue problem:
     a serial algorithm will be used

 
     Parallelization info
     --------------------
     sticks:   dense  smooth     PW     G-vecs:    dense   smooth      PW
     Min         147      59     13                 3128      788      94
     Max         150      62     16                 3138      792     100
     Sum        1789     725    177                37603     9479    1169
 


     bravais-lattice index     =            0
     lattice parameter (alat)  =       8.7055  a.u.
     unit-cell volume          =     428.4669 (a.u.)^3
     number of atoms/cell      =            6
     number of atomic types    =            2
     number of electrons       =        32.00
     number of Kohn-Sham states=           40
     kinetic-energy cutoff     =      30.0000  Ry
     charge density cutoff     =     300.0000  Ry
     convergence threshold     =      1.0E-04
     mixing beta               =       0.3000
     number of iterations used =            8  plain     mixing
     Exchange-correlation      = PBE ( 1  4  3  4 0 0)

     celldm(1)=   8.705547  celldm(2)=   0.000000  celldm(3)=   0.000000
     celldm(4)=   0.000000  celldm(5)=   0.000000  celldm(6)=   0.000000

     crystal axes: (cart. coord. in units of alat)
               a(1) = (   1.000000   0.000000   0.000000 )  
               a(2) = (   0.000000   1.000000   0.000000 )  
               a(3) = (   0.000000   0.000000   0.649425 )  

     reciprocal axes: (cart. coord. in units 2 pi/alat)
               b(1) = (  1.000000  0.000000  0.000000 )  
               b(2) = (  0.000000  1.000000  0.000000 )  
               b(3) = (  0.000000  0.000000  1.539823 )  


     PseudoPot. # 1 for Ti read from file:
     /util/academic/espresso/6.2.1/pseudopotentials/upf_files/Ti.pbe-mt_fhi.UPF
     MD5 check sum: 639edeb71fe77a65403f758b771b521c
     Pseudo is Norm-conserving, Zval =  4.0
     Generated using FHI98PP, converted with fhi2upf.x v.5.0.2
     Using radial grid of  515 points,  3 beta functions with: 
                l(1) =   0
                l(2) =   2
                l(3) =   3

     PseudoPot. # 2 for O  read from file:
     /util/academic/espresso/6.2.1/pseudopotentials/upf_files/O.pbe-n-rrkjus_psl.0.1.UPF
     MD5 check sum: e057bbcf3229fb5d8c36c0c92f9568b4
     Pseudo is Ultrasoft + core correction, Zval =  6.0
     Generated using "atomic" code by A. Dal Corso v.5.0.2 svn rev. 9415
     Using radial grid of 1095 points,  4 beta functions with: 
                l(1) =   0
                l(2) =   0
                l(3) =   1
                l(4) =   1
     Q(r) pseudized with 0 coefficients 


     atomic species   valence    mass     pseudopotential
        Ti             4.00    47.86700     Ti( 1.00)
        O              6.00    15.99900     O ( 1.00)

     No symmetry found



   Cartesian axes

     site n.     atom                  positions (alat units)
         1           Ti  tau(   1) = (  -0.0012600  -0.0022680  -0.0043530  )
         2           Ti  tau(   2) = (   0.4981045   0.5110837   0.3212635  )
         3           O   tau(   3) = (   0.6917619   0.6554307   0.0119855  )
         4           O   tau(   4) = (   0.3270715   0.3148670   0.0047735  )
         5           O   tau(   5) = (   0.1596252   0.8248299   0.3214222  )
         6           O   tau(   6) = (   0.8309823   0.1784971   0.3345868  )

     number of k points=     1  gaussian smearing, width (Ry)=  0.0100
                       cart. coord. in units 2pi/alat
        k(    1) = (   0.0000000   0.0000000   0.0000000), wk =   2.0000000

     Dense  grid:    18802 G-vectors     FFT dimensions: (  48,  48,  32)

     Smooth grid:     4740 G-vectors     FFT dimensions: (  32,  32,  20)

     Estimated max dynamical RAM per process >       5.41 MB

     Estimated total dynamical RAM >      64.87 MB

     Check: negative/imaginary core charge=   -0.000092    0.000000

     Initial potential from superposition of free atoms

     starting charge   31.99349, renormalised to   32.00000
     Starting wfc are   48 randomized atomic wfcs

     total cpu time spent up to now is        1.1 secs

     Self-consistent Calculation

     iteration #  1     ecut=    30.00 Ry     beta= 0.30
     Davidson diagonalization with overlap
     ethr =  1.00E-02,  avg # of iterations =  5.0

     total cpu time spent up to now is        1.2 secs

     total energy              =    -148.65411510 Ry
     Harris-Foulkes estimate   =    -149.22463917 Ry
     estimated scf accuracy    <       2.95857965 Ry

     iteration #  2     ecut=    30.00 Ry     beta= 0.30
     Davidson diagonalization with overlap
     ethr =  9.25E-03,  avg # of iterations =  1.0

     total cpu time spent up to now is        1.2 secs

     total energy              =    -148.51696335 Ry
     Harris-Foulkes estimate   =    -148.78762444 Ry
     estimated scf accuracy    <       0.74625254 Ry

     iteration #  3     ecut=    30.00 Ry     beta= 0.30
     Davidson diagonalization with overlap
     ethr =  2.33E-03,  avg # of iterations =  1.0

     total cpu time spent up to now is        1.2 secs

     total energy              =    -148.52702134 Ry
     Harris-Foulkes estimate   =    -148.57419926 Ry
     estimated scf accuracy    <       0.15186329 Ry

     iteration #  4     ecut=    30.00 Ry     beta= 0.30
     Davidson diagonalization with overlap
     ethr =  4.75E-04,  avg # of iterations =  1.0

     total cpu time spent up to now is        1.3 secs

     total energy              =    -148.55045657 Ry
     Harris-Foulkes estimate   =    -148.54899307 Ry
     estimated scf accuracy    <       0.01766392 Ry

     iteration #  5     ecut=    30.00 Ry     beta= 0.30
     Davidson diagonalization with overlap
     ethr =  5.52E-05,  avg # of iterations =  4.0

     total cpu time spent up to now is        1.3 secs

     total energy              =    -148.55395945 Ry
     Harris-Foulkes estimate   =    -148.55160703 Ry
     estimated scf accuracy    <       0.00479053 Ry

     iteration #  6     ecut=    30.00 Ry     beta= 0.30
     Davidson diagonalization with overlap
     ethr =  1.50E-05,  avg # of iterations =  1.0

     total cpu time spent up to now is        1.3 secs

     total energy              =    -148.55461563 Ry
     Harris-Foulkes estimate   =    -148.55435025 Ry
     estimated scf accuracy    <       0.00041318 Ry

     iteration #  7     ecut=    30.00 Ry     beta= 0.30
     Davidson diagonalization with overlap
     ethr =  1.29E-06,  avg # of iterations =  3.0

     total cpu time spent up to now is        1.3 secs

     End of self-consistent calculation

          k = 0.0000 0.0000 0.0000 (   585 PWs)   bands (ev):

   -11.6985 -10.4505  -9.7422  -9.5848   1.2753   1.5438   2.2838   2.3507
     2.3945   4.0929   4.1955   4.6893   5.8898   6.5255   6.5916   6.8700
     9.8322  10.4660  10.6242  10.8985  10.9964  11.6022  12.0678  13.4530
    14.9540  15.6132  16.1517  18.4566  18.4748  20.6922  23.6091  24.0889
    24.8201  25.2107  25.5855  25.8655  27.9040  28.4804  30.2850  30.4329

     the Fermi energy is     8.0336 ev

!    total energy              =    -148.55472079 Ry
     Harris-Foulkes estimate   =    -148.55467243 Ry
     estimated scf accuracy    <       0.00005025 Ry

     The total energy is the sum of the following terms:

     one-electron contribution =     -33.93839757 Ry
     hartree contribution      =      39.72914943 Ry
     xc contribution           =     -40.80659809 Ry
     ewald contribution        =    -113.53887456 Ry
     smearing contrib. (-TS)   =      -0.00000000 Ry

     convergence has been achieved in   7 iterations

     Writing output data file x0.save
 
     init_run     :      0.11s CPU      0.13s WALL (       1 calls)
     electrons    :      0.18s CPU      0.23s WALL (       1 calls)

     Called by init_run:
     wfcinit      :      0.01s CPU      0.01s WALL (       1 calls)
     potinit      :      0.02s CPU      0.02s WALL (       1 calls)

     Called by electrons:
     c_bands      :      0.09s CPU      0.10s WALL (       7 calls)
     sum_band     :      0.03s CPU      0.03s WALL (       7 calls)
     v_of_rho     :      0.04s CPU      0.04s WALL (       8 calls)
     newd         :      0.01s CPU      0.02s WALL (       8 calls)
     mix_rho      :      0.00s CPU      0.00s WALL (       7 calls)

     Called by c_bands:
     init_us_2    :      0.00s CPU      0.00s WALL (      15 calls)
     regterg      :      0.09s CPU      0.10s WALL (       7 calls)

     Called by sum_band:
     sum_band:bec :      0.00s CPU      0.00s WALL (       7 calls)
     addusdens    :      0.01s CPU      0.01s WALL (       7 calls)

     Called by *egterg:
     h_psi        :      0.04s CPU      0.04s WALL (      24 calls)
     s_psi        :      0.00s CPU      0.00s WALL (      24 calls)
     g_psi        :      0.00s CPU      0.00s WALL (      16 calls)
     rdiaghg      :      0.05s CPU      0.05s WALL (      23 calls)

     Called by h_psi:
     h_psi:pot    :      0.04s CPU      0.04s WALL (      24 calls)
     h_psi:calbec :      0.00s CPU      0.00s WALL (      24 calls)
     vloc_psi     :      0.04s CPU      0.04s WALL (      24 calls)
     add_vuspsi   :      0.00s CPU      0.00s WALL (      24 calls)

     General routines
     calbec       :      0.00s CPU      0.00s WALL (      31 calls)
     fft          :      0.04s CPU      0.04s WALL (     124 calls)
     ffts         :      0.00s CPU      0.00s WALL (      15 calls)
     fftw         :      0.04s CPU      0.04s WALL (     814 calls)
     interpolate  :      0.01s CPU      0.01s WALL (      15 calls)
 
     Parallel routines
     fft_scatt_xy :      0.00s CPU      0.00s WALL (     953 calls)
     fft_scatt_yz :      0.04s CPU      0.04s WALL (     953 calls)
 
     PWSCF        :     0.76s CPU         1.60s WALL

 
   This run was terminated on:  20:39:45  21Jun2021            

=------------------------------------------------------------------------------=
   JOB DONE.
=------------------------------------------------------------------------------=
