
     Program PWSCF v.6.2 (svn rev. 14038) starts on 21Jun2021 at 20:40:18 

     This program is part of the open-source Quantum ESPRESSO suite
     for quantum simulation of materials; please cite
         "P. Giannozzi et al., J. Phys.:Condens. Matter 21 395502 (2009);
         "P. Giannozzi et al., J. Phys.:Condens. Matter 29 465901 (2017);
          URL http://www.quantum-espresso.org", 
     in publications or presentations arising from this work. More details at
     http://www.quantum-espresso.org/quote

     Parallel version (MPI), running on    12 processors

     MPI processes distributed on     1 nodes
     R & G space division:  proc/nbgrp/npool/nimage =      12
     Waiting for input...
     Reading input from standard input

     Current dimensions of program PWSCF are:
     Max number of different atomic species (ntypx) = 10
     Max number of k-points (npk) =  40000
     Max angular momentum in pseudopotentials (lmaxx) =  3
               file Ti.pbe-mt_fhi.UPF: wavefunction(s)  4f renormalized

     gamma-point specific algorithms are used

     Subspace diagonalization in iterative solution of the eigenvalue problem:
     a serial algorithm will be used

 
     Parallelization info
     --------------------
     sticks:   dense  smooth     PW     G-vecs:    dense   smooth      PW
     Min         147      59     13                 3128      788      94
     Max         150      62     16                 3138      792     100
     Sum        1789     725    177                37603     9479    1169
 


     bravais-lattice index     =            0
     lattice parameter (alat)  =       8.7055  a.u.
     unit-cell volume          =     428.4669 (a.u.)^3
     number of atoms/cell      =            6
     number of atomic types    =            2
     number of electrons       =        32.00
     number of Kohn-Sham states=           40
     kinetic-energy cutoff     =      30.0000  Ry
     charge density cutoff     =     300.0000  Ry
     convergence threshold     =      1.0E-04
     mixing beta               =       0.3000
     number of iterations used =            8  plain     mixing
     Exchange-correlation      = PBE ( 1  4  3  4 0 0)

     celldm(1)=   8.705547  celldm(2)=   0.000000  celldm(3)=   0.000000
     celldm(4)=   0.000000  celldm(5)=   0.000000  celldm(6)=   0.000000

     crystal axes: (cart. coord. in units of alat)
               a(1) = (   1.000000   0.000000   0.000000 )  
               a(2) = (   0.000000   1.000000   0.000000 )  
               a(3) = (   0.000000   0.000000   0.649425 )  

     reciprocal axes: (cart. coord. in units 2 pi/alat)
               b(1) = (  1.000000  0.000000  0.000000 )  
               b(2) = (  0.000000  1.000000  0.000000 )  
               b(3) = (  0.000000  0.000000  1.539823 )  


     PseudoPot. # 1 for Ti read from file:
     /util/academic/espresso/6.2.1/pseudopotentials/upf_files/Ti.pbe-mt_fhi.UPF
     MD5 check sum: 639edeb71fe77a65403f758b771b521c
     Pseudo is Norm-conserving, Zval =  4.0
     Generated using FHI98PP, converted with fhi2upf.x v.5.0.2
     Using radial grid of  515 points,  3 beta functions with: 
                l(1) =   0
                l(2) =   2
                l(3) =   3

     PseudoPot. # 2 for O  read from file:
     /util/academic/espresso/6.2.1/pseudopotentials/upf_files/O.pbe-n-rrkjus_psl.0.1.UPF
     MD5 check sum: e057bbcf3229fb5d8c36c0c92f9568b4
     Pseudo is Ultrasoft + core correction, Zval =  6.0
     Generated using "atomic" code by A. Dal Corso v.5.0.2 svn rev. 9415
     Using radial grid of 1095 points,  4 beta functions with: 
                l(1) =   0
                l(2) =   0
                l(3) =   1
                l(4) =   1
     Q(r) pseudized with 0 coefficients 


     atomic species   valence    mass     pseudopotential
        Ti             4.00    47.86700     Ti( 1.00)
        O              6.00    15.99900     O ( 1.00)

     No symmetry found



   Cartesian axes

     site n.     atom                  positions (alat units)
         1           Ti  tau(   1) = (  -0.0150376   0.0017047  -0.0077965  )
         2           Ti  tau(   2) = (   0.4854854   0.5103467   0.3210567  )
         3           O   tau(   3) = (   0.7049301   0.6583189   0.0169690  )
         4           O   tau(   4) = (   0.3344155   0.3106686   0.0143589  )
         5           O   tau(   5) = (   0.2056838   0.8155359   0.3259685  )
         6           O   tau(   6) = (   0.8433872   0.1794203   0.3263926  )

     number of k points=     1  gaussian smearing, width (Ry)=  0.0100
                       cart. coord. in units 2pi/alat
        k(    1) = (   0.0000000   0.0000000   0.0000000), wk =   2.0000000

     Dense  grid:    18802 G-vectors     FFT dimensions: (  48,  48,  32)

     Smooth grid:     4740 G-vectors     FFT dimensions: (  32,  32,  20)

     Estimated max dynamical RAM per process >       5.41 MB

     Estimated total dynamical RAM >      64.87 MB

     Check: negative/imaginary core charge=   -0.000092    0.000000

     Initial potential from superposition of free atoms

     starting charge   31.99349, renormalised to   32.00000
     Starting wfc are   48 randomized atomic wfcs

     total cpu time spent up to now is        1.0 secs

     Self-consistent Calculation

     iteration #  1     ecut=    30.00 Ry     beta= 0.30
     Davidson diagonalization with overlap
     ethr =  1.00E-02,  avg # of iterations =  5.0

     total cpu time spent up to now is        1.0 secs

     total energy              =    -148.40932044 Ry
     Harris-Foulkes estimate   =    -149.30867223 Ry
     estimated scf accuracy    <       4.12815011 Ry

     iteration #  2     ecut=    30.00 Ry     beta= 0.30
     Davidson diagonalization with overlap
     ethr =  1.00E-02,  avg # of iterations =  1.0

     total cpu time spent up to now is        1.0 secs

     total energy              =    -148.57252581 Ry
     Harris-Foulkes estimate   =    -148.83609565 Ry
     estimated scf accuracy    <       0.85539966 Ry

     iteration #  3     ecut=    30.00 Ry     beta= 0.30
     Davidson diagonalization with overlap
     ethr =  2.67E-03,  avg # of iterations =  1.0

     total cpu time spent up to now is        1.1 secs

     total energy              =    -148.55060610 Ry
     Harris-Foulkes estimate   =    -148.63832151 Ry
     estimated scf accuracy    <       0.25644340 Ry

     iteration #  4     ecut=    30.00 Ry     beta= 0.30
     Davidson diagonalization with overlap
     ethr =  8.01E-04,  avg # of iterations =  2.0

     total cpu time spent up to now is        1.1 secs

     total energy              =    -148.58734182 Ry
     Harris-Foulkes estimate   =    -148.58488230 Ry
     estimated scf accuracy    <       0.01391636 Ry

     iteration #  5     ecut=    30.00 Ry     beta= 0.30
     Davidson diagonalization with overlap
     ethr =  4.35E-05,  avg # of iterations =  4.0

     total cpu time spent up to now is        1.1 secs

     total energy              =    -148.59178547 Ry
     Harris-Foulkes estimate   =    -148.58863919 Ry
     estimated scf accuracy    <       0.00496323 Ry

     iteration #  6     ecut=    30.00 Ry     beta= 0.30
     Davidson diagonalization with overlap
     ethr =  1.55E-05,  avg # of iterations =  1.0

     total cpu time spent up to now is        1.1 secs

     total energy              =    -148.59264501 Ry
     Harris-Foulkes estimate   =    -148.59219266 Ry
     estimated scf accuracy    <       0.00124633 Ry

     iteration #  7     ecut=    30.00 Ry     beta= 0.30
     Davidson diagonalization with overlap
     ethr =  3.89E-06,  avg # of iterations =  2.0

     total cpu time spent up to now is        1.2 secs

     total energy              =    -148.59288120 Ry
     Harris-Foulkes estimate   =    -148.59276691 Ry
     estimated scf accuracy    <       0.00012221 Ry

     iteration #  8     ecut=    30.00 Ry     beta= 0.30
     Davidson diagonalization with overlap
     ethr =  3.82E-07,  avg # of iterations =  1.0

     total cpu time spent up to now is        1.2 secs

     End of self-consistent calculation

          k = 0.0000 0.0000 0.0000 (   585 PWs)   bands (ev):

   -11.7990 -10.4990  -9.8099  -9.6287   1.1605   1.6981   2.1946   2.2153
     2.8091   4.1059   4.2454   4.7573   5.7412   6.0582   6.1291   7.0587
    10.0960  10.5211  10.5726  10.8051  11.1317  11.8878  12.1818  13.6687
    14.6703  14.8396  15.5163  18.3607  18.8107  20.8714  23.1488  23.4547
    24.8628  25.5828  25.8005  26.0552  27.8977  28.7362  30.3493  30.5991

     the Fermi energy is     9.4001 ev

!    total energy              =    -148.59294392 Ry
     Harris-Foulkes estimate   =    -148.59289865 Ry
     estimated scf accuracy    <       0.00002097 Ry

     The total energy is the sum of the following terms:

     one-electron contribution =     -32.45152029 Ry
     hartree contribution      =      38.89208474 Ry
     xc contribution           =     -40.74216994 Ry
     ewald contribution        =    -114.29133844 Ry
     smearing contrib. (-TS)   =      -0.00000000 Ry

     convergence has been achieved in   8 iterations

     Writing output data file x0.save
 
     init_run     :      0.11s CPU      0.14s WALL (       1 calls)
     electrons    :      0.20s CPU      0.25s WALL (       1 calls)

     Called by init_run:
     wfcinit      :      0.01s CPU      0.01s WALL (       1 calls)
     potinit      :      0.02s CPU      0.02s WALL (       1 calls)

     Called by electrons:
     c_bands      :      0.10s CPU      0.11s WALL (       8 calls)
     sum_band     :      0.03s CPU      0.03s WALL (       8 calls)
     v_of_rho     :      0.04s CPU      0.04s WALL (       9 calls)
     newd         :      0.02s CPU      0.02s WALL (       9 calls)
     mix_rho      :      0.01s CPU      0.01s WALL (       8 calls)

     Called by c_bands:
     init_us_2    :      0.00s CPU      0.00s WALL (      17 calls)
     regterg      :      0.10s CPU      0.11s WALL (       8 calls)

     Called by sum_band:
     sum_band:bec :      0.00s CPU      0.00s WALL (       8 calls)
     addusdens    :      0.02s CPU      0.02s WALL (       8 calls)

     Called by *egterg:
     h_psi        :      0.04s CPU      0.05s WALL (      26 calls)
     s_psi        :      0.00s CPU      0.00s WALL (      26 calls)
     g_psi        :      0.00s CPU      0.00s WALL (      17 calls)
     rdiaghg      :      0.05s CPU      0.05s WALL (      25 calls)

     Called by h_psi:
     h_psi:pot    :      0.04s CPU      0.05s WALL (      26 calls)
     h_psi:calbec :      0.00s CPU      0.00s WALL (      26 calls)
     vloc_psi     :      0.04s CPU      0.04s WALL (      26 calls)
     add_vuspsi   :      0.00s CPU      0.00s WALL (      26 calls)

     General routines
     calbec       :      0.00s CPU      0.00s WALL (      34 calls)
     fft          :      0.04s CPU      0.04s WALL (     140 calls)
     ffts         :      0.00s CPU      0.00s WALL (      17 calls)
     fftw         :      0.05s CPU      0.05s WALL (     916 calls)
     interpolate  :      0.01s CPU      0.01s WALL (      17 calls)
 
     Parallel routines
     fft_scatt_xy :      0.00s CPU      0.00s WALL (    1073 calls)
     fft_scatt_yz :      0.04s CPU      0.04s WALL (    1073 calls)
 
     PWSCF        :     0.69s CPU         1.39s WALL

 
   This run was terminated on:  20:40:19  21Jun2021            

=------------------------------------------------------------------------------=
   JOB DONE.
=------------------------------------------------------------------------------=
