
     Program PWSCF v.6.2 (svn rev. 14038) starts on 21Jun2021 at 20:40:42 

     This program is part of the open-source Quantum ESPRESSO suite
     for quantum simulation of materials; please cite
         "P. Giannozzi et al., J. Phys.:Condens. Matter 21 395502 (2009);
         "P. Giannozzi et al., J. Phys.:Condens. Matter 29 465901 (2017);
          URL http://www.quantum-espresso.org", 
     in publications or presentations arising from this work. More details at
     http://www.quantum-espresso.org/quote

     Parallel version (MPI), running on    12 processors

     MPI processes distributed on     1 nodes
     R & G space division:  proc/nbgrp/npool/nimage =      12
     Waiting for input...
     Reading input from standard input

     Current dimensions of program PWSCF are:
     Max number of different atomic species (ntypx) = 10
     Max number of k-points (npk) =  40000
     Max angular momentum in pseudopotentials (lmaxx) =  3
               file Ti.pbe-mt_fhi.UPF: wavefunction(s)  4f renormalized

     gamma-point specific algorithms are used

     Subspace diagonalization in iterative solution of the eigenvalue problem:
     a serial algorithm will be used

 
     Parallelization info
     --------------------
     sticks:   dense  smooth     PW     G-vecs:    dense   smooth      PW
     Min         147      59     13                 3128      788      94
     Max         150      62     16                 3138      792     100
     Sum        1789     725    177                37603     9479    1169
 


     bravais-lattice index     =            0
     lattice parameter (alat)  =       8.7055  a.u.
     unit-cell volume          =     428.4669 (a.u.)^3
     number of atoms/cell      =            6
     number of atomic types    =            2
     number of electrons       =        32.00
     number of Kohn-Sham states=           40
     kinetic-energy cutoff     =      30.0000  Ry
     charge density cutoff     =     300.0000  Ry
     convergence threshold     =      1.0E-04
     mixing beta               =       0.3000
     number of iterations used =            8  plain     mixing
     Exchange-correlation      = PBE ( 1  4  3  4 0 0)

     celldm(1)=   8.705547  celldm(2)=   0.000000  celldm(3)=   0.000000
     celldm(4)=   0.000000  celldm(5)=   0.000000  celldm(6)=   0.000000

     crystal axes: (cart. coord. in units of alat)
               a(1) = (   1.000000   0.000000   0.000000 )  
               a(2) = (   0.000000   1.000000   0.000000 )  
               a(3) = (   0.000000   0.000000   0.649425 )  

     reciprocal axes: (cart. coord. in units 2 pi/alat)
               b(1) = (  1.000000  0.000000  0.000000 )  
               b(2) = (  0.000000  1.000000  0.000000 )  
               b(3) = (  0.000000  0.000000  1.539823 )  


     PseudoPot. # 1 for Ti read from file:
     /util/academic/espresso/6.2.1/pseudopotentials/upf_files/Ti.pbe-mt_fhi.UPF
     MD5 check sum: 639edeb71fe77a65403f758b771b521c
     Pseudo is Norm-conserving, Zval =  4.0
     Generated using FHI98PP, converted with fhi2upf.x v.5.0.2
     Using radial grid of  515 points,  3 beta functions with: 
                l(1) =   0
                l(2) =   2
                l(3) =   3

     PseudoPot. # 2 for O  read from file:
     /util/academic/espresso/6.2.1/pseudopotentials/upf_files/O.pbe-n-rrkjus_psl.0.1.UPF
     MD5 check sum: e057bbcf3229fb5d8c36c0c92f9568b4
     Pseudo is Ultrasoft + core correction, Zval =  6.0
     Generated using "atomic" code by A. Dal Corso v.5.0.2 svn rev. 9415
     Using radial grid of 1095 points,  4 beta functions with: 
                l(1) =   0
                l(2) =   0
                l(3) =   1
                l(4) =   1
     Q(r) pseudized with 0 coefficients 


     atomic species   valence    mass     pseudopotential
        Ti             4.00    47.86700     Ti( 1.00)
        O              6.00    15.99900     O ( 1.00)

     No symmetry found



   Cartesian axes

     site n.     atom                  positions (alat units)
         1           Ti  tau(   1) = (  -0.0242351  -0.0183243  -0.0090580  )
         2           Ti  tau(   2) = (   0.4823852   0.5156263   0.3291235  )
         3           O   tau(   3) = (   0.7025029   0.6707500   0.0155074  )
         4           O   tau(   4) = (   0.3574377   0.3171218   0.0039650  )
         5           O   tau(   5) = (   0.2074917   0.8304588   0.3153279  )
         6           O   tau(   6) = (   0.8577774   0.1897415   0.3285282  )

     number of k points=     1  gaussian smearing, width (Ry)=  0.0100
                       cart. coord. in units 2pi/alat
        k(    1) = (   0.0000000   0.0000000   0.0000000), wk =   2.0000000

     Dense  grid:    18802 G-vectors     FFT dimensions: (  48,  48,  32)

     Smooth grid:     4740 G-vectors     FFT dimensions: (  32,  32,  20)

     Estimated max dynamical RAM per process >       5.41 MB

     Estimated total dynamical RAM >      64.87 MB

     Check: negative/imaginary core charge=   -0.000092    0.000000

     Initial potential from superposition of free atoms

     starting charge   31.99349, renormalised to   32.00000
     Starting wfc are   48 randomized atomic wfcs

     total cpu time spent up to now is        1.0 secs

     Self-consistent Calculation

     iteration #  1     ecut=    30.00 Ry     beta= 0.30
     Davidson diagonalization with overlap
     ethr =  1.00E-02,  avg # of iterations =  8.0

     total cpu time spent up to now is        1.1 secs

     total energy              =    -148.39149344 Ry
     Harris-Foulkes estimate   =    -149.40690948 Ry
     estimated scf accuracy    <       4.40992504 Ry

     iteration #  2     ecut=    30.00 Ry     beta= 0.30
     Davidson diagonalization with overlap
     ethr =  1.00E-02,  avg # of iterations =  1.0

     total cpu time spent up to now is        1.2 secs

     total energy              =    -148.58950390 Ry
     Harris-Foulkes estimate   =    -148.89949695 Ry
     estimated scf accuracy    <       0.98120082 Ry

     iteration #  3     ecut=    30.00 Ry     beta= 0.30
     Davidson diagonalization with overlap
     ethr =  3.07E-03,  avg # of iterations =  1.0

     total cpu time spent up to now is        1.2 secs

     total energy              =    -148.57368047 Ry
     Harris-Foulkes estimate   =    -148.67858373 Ry
     estimated scf accuracy    <       0.29161109 Ry

     iteration #  4     ecut=    30.00 Ry     beta= 0.30
     Davidson diagonalization with overlap
     ethr =  9.11E-04,  avg # of iterations =  1.0

     total cpu time spent up to now is        1.2 secs

     total energy              =    -148.61230849 Ry
     Harris-Foulkes estimate   =    -148.60916087 Ry
     estimated scf accuracy    <       0.01494107 Ry

     iteration #  5     ecut=    30.00 Ry     beta= 0.30
     Davidson diagonalization with overlap
     ethr =  4.67E-05,  avg # of iterations =  5.0

     total cpu time spent up to now is        1.2 secs

     total energy              =    -148.61653495 Ry
     Harris-Foulkes estimate   =    -148.61327666 Ry
     estimated scf accuracy    <       0.00534328 Ry

     iteration #  6     ecut=    30.00 Ry     beta= 0.30
     Davidson diagonalization with overlap
     ethr =  1.67E-05,  avg # of iterations =  1.0

     total cpu time spent up to now is        1.3 secs

     total energy              =    -148.61731398 Ry
     Harris-Foulkes estimate   =    -148.61707973 Ry
     estimated scf accuracy    <       0.00034834 Ry

     iteration #  7     ecut=    30.00 Ry     beta= 0.30
     Davidson diagonalization with overlap
     ethr =  1.09E-06,  avg # of iterations =  3.0

     total cpu time spent up to now is        1.3 secs

     End of self-consistent calculation

          k = 0.0000 0.0000 0.0000 (   585 PWs)   bands (ev):

   -11.7695 -10.4256  -9.9500  -9.9100   1.2455   1.6989   2.2685   2.5241
     2.7440   3.9875   4.1884   4.5702   5.3369   6.0125   6.0781   6.7589
    10.3352  10.6598  10.7368  10.8763  11.4600  11.8807  12.4197  13.5831
    14.6009  14.7800  15.3678  18.3780  19.0796  20.7083  23.0384  23.3355
    24.8002  25.8239  25.9556  26.2023  27.9737  28.6385  30.3182  30.6168

     the Fermi energy is     9.4237 ev

!    total energy              =    -148.61742693 Ry
     Harris-Foulkes estimate   =    -148.61735071 Ry
     estimated scf accuracy    <       0.00005901 Ry

     The total energy is the sum of the following terms:

     one-electron contribution =     -32.96889220 Ry
     hartree contribution      =      39.07633195 Ry
     xc contribution           =     -40.73157361 Ry
     ewald contribution        =    -113.99329307 Ry
     smearing contrib. (-TS)   =      -0.00000000 Ry

     convergence has been achieved in   7 iterations

     Writing output data file x0.save
 
     init_run     :      0.09s CPU      0.11s WALL (       1 calls)
     electrons    :      0.20s CPU      0.29s WALL (       1 calls)

     Called by init_run:
     wfcinit      :      0.01s CPU      0.01s WALL (       1 calls)
     potinit      :      0.02s CPU      0.02s WALL (       1 calls)

     Called by electrons:
     c_bands      :      0.11s CPU      0.12s WALL (       7 calls)
     sum_band     :      0.03s CPU      0.03s WALL (       7 calls)
     v_of_rho     :      0.04s CPU      0.04s WALL (       8 calls)
     newd         :      0.01s CPU      0.02s WALL (       8 calls)
     mix_rho      :      0.00s CPU      0.00s WALL (       7 calls)

     Called by c_bands:
     init_us_2    :      0.00s CPU      0.00s WALL (      15 calls)
     regterg      :      0.11s CPU      0.12s WALL (       7 calls)

     Called by sum_band:
     sum_band:bec :      0.00s CPU      0.00s WALL (       7 calls)
     addusdens    :      0.01s CPU      0.01s WALL (       7 calls)

     Called by *egterg:
     h_psi        :      0.05s CPU      0.05s WALL (      28 calls)
     s_psi        :      0.00s CPU      0.00s WALL (      28 calls)
     g_psi        :      0.00s CPU      0.00s WALL (      20 calls)
     rdiaghg      :      0.06s CPU      0.07s WALL (      27 calls)

     Called by h_psi:
     h_psi:pot    :      0.05s CPU      0.05s WALL (      28 calls)
     h_psi:calbec :      0.00s CPU      0.00s WALL (      28 calls)
     vloc_psi     :      0.04s CPU      0.04s WALL (      28 calls)
     add_vuspsi   :      0.00s CPU      0.00s WALL (      28 calls)

     General routines
     calbec       :      0.00s CPU      0.00s WALL (      35 calls)
     fft          :      0.03s CPU      0.04s WALL (     124 calls)
     ffts         :      0.00s CPU      0.00s WALL (      15 calls)
     fftw         :      0.05s CPU      0.05s WALL (     824 calls)
     interpolate  :      0.01s CPU      0.01s WALL (      15 calls)
 
     Parallel routines
     fft_scatt_xy :      0.00s CPU      0.00s WALL (     963 calls)
     fft_scatt_yz :      0.03s CPU      0.03s WALL (     963 calls)
 
     PWSCF        :     0.76s CPU         1.63s WALL

 
   This run was terminated on:  20:40:44  21Jun2021            

=------------------------------------------------------------------------------=
   JOB DONE.
=------------------------------------------------------------------------------=
