
     Program PWSCF v.6.2 (svn rev. 14038) starts on 21Jun2021 at 20:41:10 

     This program is part of the open-source Quantum ESPRESSO suite
     for quantum simulation of materials; please cite
         "P. Giannozzi et al., J. Phys.:Condens. Matter 21 395502 (2009);
         "P. Giannozzi et al., J. Phys.:Condens. Matter 29 465901 (2017);
          URL http://www.quantum-espresso.org", 
     in publications or presentations arising from this work. More details at
     http://www.quantum-espresso.org/quote

     Parallel version (MPI), running on    12 processors

     MPI processes distributed on     1 nodes
     R & G space division:  proc/nbgrp/npool/nimage =      12
     Waiting for input...
     Reading input from standard input

     Current dimensions of program PWSCF are:
     Max number of different atomic species (ntypx) = 10
     Max number of k-points (npk) =  40000
     Max angular momentum in pseudopotentials (lmaxx) =  3
               file Ti.pbe-mt_fhi.UPF: wavefunction(s)  4f renormalized

     gamma-point specific algorithms are used

     Subspace diagonalization in iterative solution of the eigenvalue problem:
     a serial algorithm will be used

 
     Parallelization info
     --------------------
     sticks:   dense  smooth     PW     G-vecs:    dense   smooth      PW
     Min         147      59     13                 3128      788      94
     Max         150      62     16                 3138      792     100
     Sum        1789     725    177                37603     9479    1169
 


     bravais-lattice index     =            0
     lattice parameter (alat)  =       8.7055  a.u.
     unit-cell volume          =     428.4669 (a.u.)^3
     number of atoms/cell      =            6
     number of atomic types    =            2
     number of electrons       =        32.00
     number of Kohn-Sham states=           40
     kinetic-energy cutoff     =      30.0000  Ry
     charge density cutoff     =     300.0000  Ry
     convergence threshold     =      1.0E-04
     mixing beta               =       0.3000
     number of iterations used =            8  plain     mixing
     Exchange-correlation      = PBE ( 1  4  3  4 0 0)

     celldm(1)=   8.705547  celldm(2)=   0.000000  celldm(3)=   0.000000
     celldm(4)=   0.000000  celldm(5)=   0.000000  celldm(6)=   0.000000

     crystal axes: (cart. coord. in units of alat)
               a(1) = (   1.000000   0.000000   0.000000 )  
               a(2) = (   0.000000   1.000000   0.000000 )  
               a(3) = (   0.000000   0.000000   0.649425 )  

     reciprocal axes: (cart. coord. in units 2 pi/alat)
               b(1) = (  1.000000  0.000000  0.000000 )  
               b(2) = (  0.000000  1.000000  0.000000 )  
               b(3) = (  0.000000  0.000000  1.539823 )  


     PseudoPot. # 1 for Ti read from file:
     /util/academic/espresso/6.2.1/pseudopotentials/upf_files/Ti.pbe-mt_fhi.UPF
     MD5 check sum: 639edeb71fe77a65403f758b771b521c
     Pseudo is Norm-conserving, Zval =  4.0
     Generated using FHI98PP, converted with fhi2upf.x v.5.0.2
     Using radial grid of  515 points,  3 beta functions with: 
                l(1) =   0
                l(2) =   2
                l(3) =   3

     PseudoPot. # 2 for O  read from file:
     /util/academic/espresso/6.2.1/pseudopotentials/upf_files/O.pbe-n-rrkjus_psl.0.1.UPF
     MD5 check sum: e057bbcf3229fb5d8c36c0c92f9568b4
     Pseudo is Ultrasoft + core correction, Zval =  6.0
     Generated using "atomic" code by A. Dal Corso v.5.0.2 svn rev. 9415
     Using radial grid of 1095 points,  4 beta functions with: 
                l(1) =   0
                l(2) =   0
                l(3) =   1
                l(4) =   1
     Q(r) pseudized with 0 coefficients 


     atomic species   valence    mass     pseudopotential
        Ti             4.00    47.86700     Ti( 1.00)
        O              6.00    15.99900     O ( 1.00)

     No symmetry found



   Cartesian axes

     site n.     atom                  positions (alat units)
         1           Ti  tau(   1) = (  -0.0274225  -0.0200099  -0.0071806  )
         2           Ti  tau(   2) = (   0.4831202   0.5153108   0.3307752  )
         3           O   tau(   3) = (   0.7011739   0.6733152   0.0148045  )
         4           O   tau(   4) = (   0.3567567   0.3153574   0.0023867  )
         5           O   tau(   5) = (   0.2116305   0.8352406   0.3100349  )
         6           O   tau(   6) = (   0.8629860   0.1901458   0.3255439  )

     number of k points=     1  gaussian smearing, width (Ry)=  0.0100
                       cart. coord. in units 2pi/alat
        k(    1) = (   0.0000000   0.0000000   0.0000000), wk =   2.0000000

     Dense  grid:    18802 G-vectors     FFT dimensions: (  48,  48,  32)

     Smooth grid:     4740 G-vectors     FFT dimensions: (  32,  32,  20)

     Estimated max dynamical RAM per process >       5.41 MB

     Estimated total dynamical RAM >      64.87 MB

     Check: negative/imaginary core charge=   -0.000091    0.000000

     Initial potential from superposition of free atoms

     starting charge   31.99349, renormalised to   32.00000
     Starting wfc are   48 randomized atomic wfcs

     total cpu time spent up to now is        1.1 secs

     Self-consistent Calculation

     iteration #  1     ecut=    30.00 Ry     beta= 0.30
     Davidson diagonalization with overlap
     ethr =  1.00E-02,  avg # of iterations =  8.0

     total cpu time spent up to now is        1.1 secs

     total energy              =    -148.35289319 Ry
     Harris-Foulkes estimate   =    -149.41799706 Ry
     estimated scf accuracy    <       4.55891582 Ry

     iteration #  2     ecut=    30.00 Ry     beta= 0.30
     Davidson diagonalization with overlap
     ethr =  1.00E-02,  avg # of iterations =  1.0

     total cpu time spent up to now is        1.2 secs

     total energy              =    -148.58532719 Ry
     Harris-Foulkes estimate   =    -148.91119353 Ry
     estimated scf accuracy    <       1.03274996 Ry

     iteration #  3     ecut=    30.00 Ry     beta= 0.30
     Davidson diagonalization with overlap
     ethr =  3.23E-03,  avg # of iterations =  1.0

     total cpu time spent up to now is        1.2 secs

     total energy              =    -148.57595713 Ry
     Harris-Foulkes estimate   =    -148.68203520 Ry
     estimated scf accuracy    <       0.29605815 Ry

     iteration #  4     ecut=    30.00 Ry     beta= 0.30
     Davidson diagonalization with overlap
     ethr =  9.25E-04,  avg # of iterations =  1.0

     total cpu time spent up to now is        1.2 secs

     total energy              =    -148.61376016 Ry
     Harris-Foulkes estimate   =    -148.61083889 Ry
     estimated scf accuracy    <       0.01621630 Ry

     iteration #  5     ecut=    30.00 Ry     beta= 0.30
     Davidson diagonalization with overlap
     ethr =  5.07E-05,  avg # of iterations =  5.0

     total cpu time spent up to now is        1.2 secs

     total energy              =    -148.61800393 Ry
     Harris-Foulkes estimate   =    -148.61492450 Ry
     estimated scf accuracy    <       0.00551294 Ry

     iteration #  6     ecut=    30.00 Ry     beta= 0.30
     Davidson diagonalization with overlap
     ethr =  1.72E-05,  avg # of iterations =  1.0

     total cpu time spent up to now is        1.3 secs

     total energy              =    -148.61891844 Ry
     Harris-Foulkes estimate   =    -148.61847543 Ry
     estimated scf accuracy    <       0.00081207 Ry

     iteration #  7     ecut=    30.00 Ry     beta= 0.30
     Davidson diagonalization with overlap
     ethr =  2.54E-06,  avg # of iterations =  3.0

     total cpu time spent up to now is        1.3 secs

     End of self-consistent calculation

          k = 0.0000 0.0000 0.0000 (   585 PWs)   bands (ev):

   -11.7876 -10.4594  -9.9745  -9.8720   1.2404   1.7186   2.2700   2.5277
     2.7790   3.9623   4.1825   4.5682   5.2987   5.9921   6.0702   6.7564
    10.3712  10.6783  10.7433  10.8845  11.5118  11.8876  12.4547  13.5968
    14.4865  14.7326  15.3115  18.3376  19.1455  20.7202  22.9848  23.3078
    24.7307  25.8050  26.0527  26.3175  27.9820  28.6471  30.3043  30.6659

     the Fermi energy is     9.4392 ev

!    total energy              =    -148.61908181 Ry
     Harris-Foulkes estimate   =    -148.61900386 Ry
     estimated scf accuracy    <       0.00009969 Ry

     The total energy is the sum of the following terms:

     one-electron contribution =     -32.94649419 Ry
     hartree contribution      =      39.06778872 Ry
     xc contribution           =     -40.72721973 Ry
     ewald contribution        =    -114.01315661 Ry
     smearing contrib. (-TS)   =      -0.00000000 Ry

     convergence has been achieved in   7 iterations

     Writing output data file x0.save
 
     init_run     :      0.10s CPU      0.11s WALL (       1 calls)
     electrons    :      0.20s CPU      0.29s WALL (       1 calls)

     Called by init_run:
     wfcinit      :      0.01s CPU      0.01s WALL (       1 calls)
     potinit      :      0.02s CPU      0.02s WALL (       1 calls)

     Called by electrons:
     c_bands      :      0.11s CPU      0.12s WALL (       7 calls)
     sum_band     :      0.03s CPU      0.03s WALL (       7 calls)
     v_of_rho     :      0.03s CPU      0.04s WALL (       8 calls)
     newd         :      0.02s CPU      0.02s WALL (       8 calls)
     mix_rho      :      0.00s CPU      0.00s WALL (       7 calls)

     Called by c_bands:
     init_us_2    :      0.00s CPU      0.00s WALL (      15 calls)
     regterg      :      0.11s CPU      0.12s WALL (       7 calls)

     Called by sum_band:
     sum_band:bec :      0.00s CPU      0.00s WALL (       7 calls)
     addusdens    :      0.01s CPU      0.01s WALL (       7 calls)

     Called by *egterg:
     h_psi        :      0.04s CPU      0.05s WALL (      28 calls)
     s_psi        :      0.00s CPU      0.00s WALL (      28 calls)
     g_psi        :      0.00s CPU      0.00s WALL (      20 calls)
     rdiaghg      :      0.06s CPU      0.07s WALL (      27 calls)

     Called by h_psi:
     h_psi:pot    :      0.04s CPU      0.05s WALL (      28 calls)
     h_psi:calbec :      0.00s CPU      0.00s WALL (      28 calls)
     vloc_psi     :      0.04s CPU      0.04s WALL (      28 calls)
     add_vuspsi   :      0.00s CPU      0.00s WALL (      28 calls)

     General routines
     calbec       :      0.00s CPU      0.00s WALL (      35 calls)
     fft          :      0.03s CPU      0.04s WALL (     124 calls)
     ffts         :      0.00s CPU      0.00s WALL (      15 calls)
     fftw         :      0.04s CPU      0.05s WALL (     824 calls)
     interpolate  :      0.01s CPU      0.01s WALL (      15 calls)
 
     Parallel routines
     fft_scatt_xy :      0.00s CPU      0.00s WALL (     963 calls)
     fft_scatt_yz :      0.03s CPU      0.03s WALL (     963 calls)
 
     PWSCF        :     0.78s CPU         1.65s WALL

 
   This run was terminated on:  20:41:12  21Jun2021            

=------------------------------------------------------------------------------=
   JOB DONE.
=------------------------------------------------------------------------------=
