
     Program PWSCF v.6.2 (svn rev. 14038) starts on 21Jun2021 at 20:41:31 

     This program is part of the open-source Quantum ESPRESSO suite
     for quantum simulation of materials; please cite
         "P. Giannozzi et al., J. Phys.:Condens. Matter 21 395502 (2009);
         "P. Giannozzi et al., J. Phys.:Condens. Matter 29 465901 (2017);
          URL http://www.quantum-espresso.org", 
     in publications or presentations arising from this work. More details at
     http://www.quantum-espresso.org/quote

     Parallel version (MPI), running on    12 processors

     MPI processes distributed on     1 nodes
     R & G space division:  proc/nbgrp/npool/nimage =      12
     Waiting for input...
     Reading input from standard input

     Current dimensions of program PWSCF are:
     Max number of different atomic species (ntypx) = 10
     Max number of k-points (npk) =  40000
     Max angular momentum in pseudopotentials (lmaxx) =  3
               file Ti.pbe-mt_fhi.UPF: wavefunction(s)  4f renormalized

     gamma-point specific algorithms are used

     Subspace diagonalization in iterative solution of the eigenvalue problem:
     a serial algorithm will be used

 
     Parallelization info
     --------------------
     sticks:   dense  smooth     PW     G-vecs:    dense   smooth      PW
     Min         147      59     13                 3128      788      94
     Max         150      62     16                 3138      792     100
     Sum        1789     725    177                37603     9479    1169
 


     bravais-lattice index     =            0
     lattice parameter (alat)  =       8.7055  a.u.
     unit-cell volume          =     428.4669 (a.u.)^3
     number of atoms/cell      =            6
     number of atomic types    =            2
     number of electrons       =        32.00
     number of Kohn-Sham states=           40
     kinetic-energy cutoff     =      30.0000  Ry
     charge density cutoff     =     300.0000  Ry
     convergence threshold     =      1.0E-04
     mixing beta               =       0.3000
     number of iterations used =            8  plain     mixing
     Exchange-correlation      = PBE ( 1  4  3  4 0 0)

     celldm(1)=   8.705547  celldm(2)=   0.000000  celldm(3)=   0.000000
     celldm(4)=   0.000000  celldm(5)=   0.000000  celldm(6)=   0.000000

     crystal axes: (cart. coord. in units of alat)
               a(1) = (   1.000000   0.000000   0.000000 )  
               a(2) = (   0.000000   1.000000   0.000000 )  
               a(3) = (   0.000000   0.000000   0.649425 )  

     reciprocal axes: (cart. coord. in units 2 pi/alat)
               b(1) = (  1.000000  0.000000  0.000000 )  
               b(2) = (  0.000000  1.000000  0.000000 )  
               b(3) = (  0.000000  0.000000  1.539823 )  


     PseudoPot. # 1 for Ti read from file:
     /util/academic/espresso/6.2.1/pseudopotentials/upf_files/Ti.pbe-mt_fhi.UPF
     MD5 check sum: 639edeb71fe77a65403f758b771b521c
     Pseudo is Norm-conserving, Zval =  4.0
     Generated using FHI98PP, converted with fhi2upf.x v.5.0.2
     Using radial grid of  515 points,  3 beta functions with: 
                l(1) =   0
                l(2) =   2
                l(3) =   3

     PseudoPot. # 2 for O  read from file:
     /util/academic/espresso/6.2.1/pseudopotentials/upf_files/O.pbe-n-rrkjus_psl.0.1.UPF
     MD5 check sum: e057bbcf3229fb5d8c36c0c92f9568b4
     Pseudo is Ultrasoft + core correction, Zval =  6.0
     Generated using "atomic" code by A. Dal Corso v.5.0.2 svn rev. 9415
     Using radial grid of 1095 points,  4 beta functions with: 
                l(1) =   0
                l(2) =   0
                l(3) =   1
                l(4) =   1
     Q(r) pseudized with 0 coefficients 


     atomic species   valence    mass     pseudopotential
        Ti             4.00    47.86700     Ti( 1.00)
        O              6.00    15.99900     O ( 1.00)

     No symmetry found



   Cartesian axes

     site n.     atom                  positions (alat units)
         1           Ti  tau(   1) = (  -0.0306790  -0.0192896  -0.0059076  )
         2           Ti  tau(   2) = (   0.4840580   0.5143171   0.3322569  )
         3           O   tau(   3) = (   0.7026147   0.6719720   0.0140984  )
         4           O   tau(   4) = (   0.3584790   0.3142134   0.0017212  )
         5           O   tau(   5) = (   0.2160444   0.8392893   0.3073389  )
         6           O   tau(   6) = (   0.8623460   0.1894024   0.3213694  )

     number of k points=     1  gaussian smearing, width (Ry)=  0.0100
                       cart. coord. in units 2pi/alat
        k(    1) = (   0.0000000   0.0000000   0.0000000), wk =   2.0000000

     Dense  grid:    18802 G-vectors     FFT dimensions: (  48,  48,  32)

     Smooth grid:     4740 G-vectors     FFT dimensions: (  32,  32,  20)

     Estimated max dynamical RAM per process >       5.41 MB

     Estimated total dynamical RAM >      64.87 MB

     Check: negative/imaginary core charge=   -0.000091    0.000000

     Initial potential from superposition of free atoms

     starting charge   31.99349, renormalised to   32.00000
     Starting wfc are   48 randomized atomic wfcs

     total cpu time spent up to now is        1.0 secs

     Self-consistent Calculation

     iteration #  1     ecut=    30.00 Ry     beta= 0.30
     Davidson diagonalization with overlap
     ethr =  1.00E-02,  avg # of iterations =  6.0

     total cpu time spent up to now is        1.1 secs

     total energy              =    -148.32703943 Ry
     Harris-Foulkes estimate   =    -149.42247307 Ry
     estimated scf accuracy    <       4.65975543 Ry

     iteration #  2     ecut=    30.00 Ry     beta= 0.30
     Davidson diagonalization with overlap
     ethr =  1.00E-02,  avg # of iterations =  1.0

     total cpu time spent up to now is        1.1 secs

     total energy              =    -148.58393851 Ry
     Harris-Foulkes estimate   =    -148.91572995 Ry
     estimated scf accuracy    <       1.05288183 Ry

     iteration #  3     ecut=    30.00 Ry     beta= 0.30
     Davidson diagonalization with overlap
     ethr =  3.29E-03,  avg # of iterations =  1.0

     total cpu time spent up to now is        1.2 secs

     total energy              =    -148.57787213 Ry
     Harris-Foulkes estimate   =    -148.68327969 Ry
     estimated scf accuracy    <       0.29589845 Ry

     iteration #  4     ecut=    30.00 Ry     beta= 0.30
     Davidson diagonalization with overlap
     ethr =  9.25E-04,  avg # of iterations =  3.0

     total cpu time spent up to now is        1.2 secs

     total energy              =    -148.61490770 Ry
     Harris-Foulkes estimate   =    -148.61243157 Ry
     estimated scf accuracy    <       0.01765537 Ry

     iteration #  5     ecut=    30.00 Ry     beta= 0.30
     Davidson diagonalization with overlap
     ethr =  5.52E-05,  avg # of iterations =  3.0

     total cpu time spent up to now is        1.2 secs

     total energy              =    -148.61932220 Ry
     Harris-Foulkes estimate   =    -148.61629442 Ry
     estimated scf accuracy    <       0.00572050 Ry

     iteration #  6     ecut=    30.00 Ry     beta= 0.30
     Davidson diagonalization with overlap
     ethr =  1.79E-05,  avg # of iterations =  4.0

     total cpu time spent up to now is        1.2 secs

     total energy              =    -148.62038376 Ry
     Harris-Foulkes estimate   =    -148.61977254 Ry
     estimated scf accuracy    <       0.00110244 Ry

     iteration #  7     ecut=    30.00 Ry     beta= 0.30
     Davidson diagonalization with overlap
     ethr =  3.45E-06,  avg # of iterations =  3.0

     total cpu time spent up to now is        1.3 secs

     total energy              =    -148.62057088 Ry
     Harris-Foulkes estimate   =    -148.62049757 Ry
     estimated scf accuracy    <       0.00012318 Ry

     iteration #  8     ecut=    30.00 Ry     beta= 0.30
     Davidson diagonalization with overlap
     ethr =  3.85E-07,  avg # of iterations =  1.0

     total cpu time spent up to now is        1.3 secs

     End of self-consistent calculation

          k = 0.0000 0.0000 0.0000 (   585 PWs)   bands (ev):

   -11.8030 -10.4987  -9.9783  -9.7990   1.2352   1.7368   2.2785   2.5211
     2.7722   3.9830   4.1642   4.5987   5.3151   5.9566   6.0689   6.7922
    10.4190  10.6999  10.7802  10.9037  11.5681  11.8763  12.4949  13.5959
    14.3803  14.7313  15.2642  18.3212  19.2129  20.7541  22.9381  23.2949
    24.6708  25.8615  26.1393  26.3762  27.9986  28.6723  30.3260  30.6717

     the Fermi energy is     9.4343 ev

!    total energy              =    -148.62062932 Ry
     Harris-Foulkes estimate   =    -148.62058181 Ry
     estimated scf accuracy    <       0.00002891 Ry

     The total energy is the sum of the following terms:

     one-electron contribution =     -32.88691783 Ry
     hartree contribution      =      39.01433361 Ry
     xc contribution           =     -40.71378176 Ry
     ewald contribution        =    -114.03426333 Ry
     smearing contrib. (-TS)   =      -0.00000000 Ry

     convergence has been achieved in   8 iterations

     Writing output data file x0.save
 
     init_run     :      0.09s CPU      0.12s WALL (       1 calls)
     electrons    :      0.22s CPU      0.27s WALL (       1 calls)

     Called by init_run:
     wfcinit      :      0.00s CPU      0.01s WALL (       1 calls)
     potinit      :      0.02s CPU      0.03s WALL (       1 calls)

     Called by electrons:
     c_bands      :      0.12s CPU      0.13s WALL (       8 calls)
     sum_band     :      0.03s CPU      0.04s WALL (       8 calls)
     v_of_rho     :      0.04s CPU      0.04s WALL (       9 calls)
     newd         :      0.02s CPU      0.02s WALL (       9 calls)
     mix_rho      :      0.01s CPU      0.01s WALL (       8 calls)

     Called by c_bands:
     init_us_2    :      0.00s CPU      0.00s WALL (      17 calls)
     regterg      :      0.12s CPU      0.13s WALL (       8 calls)

     Called by sum_band:
     sum_band:bec :      0.00s CPU      0.00s WALL (       8 calls)
     addusdens    :      0.02s CPU      0.02s WALL (       8 calls)

     Called by *egterg:
     h_psi        :      0.05s CPU      0.05s WALL (      31 calls)
     s_psi        :      0.00s CPU      0.00s WALL (      31 calls)
     g_psi        :      0.00s CPU      0.00s WALL (      22 calls)
     rdiaghg      :      0.06s CPU      0.07s WALL (      30 calls)

     Called by h_psi:
     h_psi:pot    :      0.05s CPU      0.05s WALL (      31 calls)
     h_psi:calbec :      0.00s CPU      0.00s WALL (      31 calls)
     vloc_psi     :      0.04s CPU      0.05s WALL (      31 calls)
     add_vuspsi   :      0.00s CPU      0.00s WALL (      31 calls)

     General routines
     calbec       :      0.00s CPU      0.00s WALL (      39 calls)
     fft          :      0.04s CPU      0.04s WALL (     140 calls)
     ffts         :      0.00s CPU      0.00s WALL (      17 calls)
     fftw         :      0.05s CPU      0.05s WALL (     926 calls)
     interpolate  :      0.01s CPU      0.01s WALL (      17 calls)
 
     Parallel routines
     fft_scatt_xy :      0.00s CPU      0.01s WALL (    1083 calls)
     fft_scatt_yz :      0.03s CPU      0.03s WALL (    1083 calls)
 
     PWSCF        :     0.77s CPU         1.48s WALL

 
   This run was terminated on:  20:41:33  21Jun2021            

=------------------------------------------------------------------------------=
   JOB DONE.
=------------------------------------------------------------------------------=
