
     Program PWSCF v.6.2 (svn rev. 14038) starts on 21Jun2021 at 20:40: 5 

     This program is part of the open-source Quantum ESPRESSO suite
     for quantum simulation of materials; please cite
         "P. Giannozzi et al., J. Phys.:Condens. Matter 21 395502 (2009);
         "P. Giannozzi et al., J. Phys.:Condens. Matter 29 465901 (2017);
          URL http://www.quantum-espresso.org", 
     in publications or presentations arising from this work. More details at
     http://www.quantum-espresso.org/quote

     Parallel version (MPI), running on    12 processors

     MPI processes distributed on     1 nodes
     R & G space division:  proc/nbgrp/npool/nimage =      12
     Waiting for input...
     Reading input from standard input

     Current dimensions of program PWSCF are:
     Max number of different atomic species (ntypx) = 10
     Max number of k-points (npk) =  40000
     Max angular momentum in pseudopotentials (lmaxx) =  3
               file Ti.pbe-mt_fhi.UPF: wavefunction(s)  4f renormalized

     gamma-point specific algorithms are used

     Subspace diagonalization in iterative solution of the eigenvalue problem:
     a serial algorithm will be used

 
     Parallelization info
     --------------------
     sticks:   dense  smooth     PW     G-vecs:    dense   smooth      PW
     Min         147      59     13                 3128      788      94
     Max         150      62     16                 3138      792     100
     Sum        1789     725    177                37603     9479    1169
 


     bravais-lattice index     =            0
     lattice parameter (alat)  =       8.7055  a.u.
     unit-cell volume          =     428.4669 (a.u.)^3
     number of atoms/cell      =            6
     number of atomic types    =            2
     number of electrons       =        32.00
     number of Kohn-Sham states=           40
     kinetic-energy cutoff     =      30.0000  Ry
     charge density cutoff     =     300.0000  Ry
     convergence threshold     =      1.0E-04
     mixing beta               =       0.3000
     number of iterations used =            8  plain     mixing
     Exchange-correlation      = PBE ( 1  4  3  4 0 0)

     celldm(1)=   8.705547  celldm(2)=   0.000000  celldm(3)=   0.000000
     celldm(4)=   0.000000  celldm(5)=   0.000000  celldm(6)=   0.000000

     crystal axes: (cart. coord. in units of alat)
               a(1) = (   1.000000   0.000000   0.000000 )  
               a(2) = (   0.000000   1.000000   0.000000 )  
               a(3) = (   0.000000   0.000000   0.649425 )  

     reciprocal axes: (cart. coord. in units 2 pi/alat)
               b(1) = (  1.000000  0.000000  0.000000 )  
               b(2) = (  0.000000  1.000000  0.000000 )  
               b(3) = (  0.000000  0.000000  1.539823 )  


     PseudoPot. # 1 for Ti read from file:
     /util/academic/espresso/6.2.1/pseudopotentials/upf_files/Ti.pbe-mt_fhi.UPF
     MD5 check sum: 639edeb71fe77a65403f758b771b521c
     Pseudo is Norm-conserving, Zval =  4.0
     Generated using FHI98PP, converted with fhi2upf.x v.5.0.2
     Using radial grid of  515 points,  3 beta functions with: 
                l(1) =   0
                l(2) =   2
                l(3) =   3

     PseudoPot. # 2 for O  read from file:
     /util/academic/espresso/6.2.1/pseudopotentials/upf_files/O.pbe-n-rrkjus_psl.0.1.UPF
     MD5 check sum: e057bbcf3229fb5d8c36c0c92f9568b4
     Pseudo is Ultrasoft + core correction, Zval =  6.0
     Generated using "atomic" code by A. Dal Corso v.5.0.2 svn rev. 9415
     Using radial grid of 1095 points,  4 beta functions with: 
                l(1) =   0
                l(2) =   0
                l(3) =   1
                l(4) =   1
     Q(r) pseudized with 0 coefficients 


     atomic species   valence    mass     pseudopotential
        Ti             4.00    47.86700     Ti( 1.00)
        O              6.00    15.99900     O ( 1.00)

     No symmetry found



   Cartesian axes

     site n.     atom                  positions (alat units)
         1           Ti  tau(   1) = (  -0.0011653   0.0001993  -0.0023745  )
         2           Ti  tau(   2) = (   0.4996568   0.5053798   0.3229917  )
         3           O   tau(   3) = (   0.6824539   0.6756359  -0.0043195  )
         4           O   tau(   4) = (   0.3165034   0.3143623   0.0163773  )
         5           O   tau(   5) = (   0.1849582   0.8137311   0.3160104  )
         6           O   tau(   6) = (   0.8205979   0.1795788   0.3336098  )

     number of k points=     1  gaussian smearing, width (Ry)=  0.0100
                       cart. coord. in units 2pi/alat
        k(    1) = (   0.0000000   0.0000000   0.0000000), wk =   2.0000000

     Dense  grid:    18802 G-vectors     FFT dimensions: (  48,  48,  32)

     Smooth grid:     4740 G-vectors     FFT dimensions: (  32,  32,  20)

     Estimated max dynamical RAM per process >       5.41 MB

     Estimated total dynamical RAM >      64.87 MB

     Check: negative/imaginary core charge=   -0.000092    0.000000

     Initial potential from superposition of free atoms

     starting charge   31.99349, renormalised to   32.00000
     Starting wfc are   48 randomized atomic wfcs

     total cpu time spent up to now is        1.1 secs

     Self-consistent Calculation

     iteration #  1     ecut=    30.00 Ry     beta= 0.30
     Davidson diagonalization with overlap
     ethr =  1.00E-02,  avg # of iterations =  5.0

     total cpu time spent up to now is        1.1 secs

     total energy              =    -148.65192551 Ry
     Harris-Foulkes estimate   =    -149.14812865 Ry
     estimated scf accuracy    <       2.76549677 Ry

     iteration #  2     ecut=    30.00 Ry     beta= 0.30
     Davidson diagonalization with overlap
     ethr =  8.64E-03,  avg # of iterations =  1.0

     total cpu time spent up to now is        1.2 secs

     total energy              =    -148.52127083 Ry
     Harris-Foulkes estimate   =    -148.76994808 Ry
     estimated scf accuracy    <       0.70770998 Ry

     iteration #  3     ecut=    30.00 Ry     beta= 0.30
     Davidson diagonalization with overlap
     ethr =  2.21E-03,  avg # of iterations =  1.0

     total cpu time spent up to now is        1.2 secs

     total energy              =    -148.53360175 Ry
     Harris-Foulkes estimate   =    -148.57426435 Ry
     estimated scf accuracy    <       0.14153116 Ry

     iteration #  4     ecut=    30.00 Ry     beta= 0.30
     Davidson diagonalization with overlap
     ethr =  4.42E-04,  avg # of iterations =  1.0

     total cpu time spent up to now is        1.2 secs

     total energy              =    -148.55543983 Ry
     Harris-Foulkes estimate   =    -148.55380388 Ry
     estimated scf accuracy    <       0.01934022 Ry

     iteration #  5     ecut=    30.00 Ry     beta= 0.30
     Davidson diagonalization with overlap
     ethr =  6.04E-05,  avg # of iterations =  4.0

     total cpu time spent up to now is        1.2 secs

     total energy              =    -148.55959235 Ry
     Harris-Foulkes estimate   =    -148.55680873 Ry
     estimated scf accuracy    <       0.00507201 Ry

     iteration #  6     ecut=    30.00 Ry     beta= 0.30
     Davidson diagonalization with overlap
     ethr =  1.59E-05,  avg # of iterations =  1.0

     total cpu time spent up to now is        1.3 secs

     total energy              =    -148.56041490 Ry
     Harris-Foulkes estimate   =    -148.56007791 Ry
     estimated scf accuracy    <       0.00042341 Ry

     iteration #  7     ecut=    30.00 Ry     beta= 0.30
     Davidson diagonalization with overlap
     ethr =  1.32E-06,  avg # of iterations =  4.0

     total cpu time spent up to now is        1.3 secs

     End of self-consistent calculation

          k = 0.0000 0.0000 0.0000 (   585 PWs)   bands (ev):

   -11.5241 -10.1740  -9.7697  -9.6769   1.3500   1.6525   2.2394   2.5873
     2.6085   4.2354   4.2541   4.7321   5.9878   6.5337   6.6076   6.9346
     9.6519  10.1235  10.3615  10.7663  10.7822  11.6408  11.9559  13.8797
    14.6973  14.7946  16.0707  18.2861  18.3109  21.0085  23.5765  23.6959
    25.1602  25.3056  25.4939  25.8308  27.7689  28.6779  30.4058  30.4969

     the Fermi energy is     8.1562 ev

!    total energy              =    -148.56056116 Ry
     Harris-Foulkes estimate   =    -148.56048117 Ry
     estimated scf accuracy    <       0.00006015 Ry

     The total energy is the sum of the following terms:

     one-electron contribution =     -32.25864095 Ry
     hartree contribution      =      38.97524048 Ry
     xc contribution           =     -40.78852668 Ry
     ewald contribution        =    -114.48863400 Ry
     smearing contrib. (-TS)   =      -0.00000000 Ry

     convergence has been achieved in   7 iterations

     Writing output data file x0.save
 
     init_run     :      0.12s CPU      0.16s WALL (       1 calls)
     electrons    :      0.19s CPU      0.26s WALL (       1 calls)

     Called by init_run:
     wfcinit      :      0.01s CPU      0.03s WALL (       1 calls)
     potinit      :      0.02s CPU      0.02s WALL (       1 calls)

     Called by electrons:
     c_bands      :      0.11s CPU      0.11s WALL (       7 calls)
     sum_band     :      0.03s CPU      0.03s WALL (       7 calls)
     v_of_rho     :      0.04s CPU      0.04s WALL (       8 calls)
     newd         :      0.02s CPU      0.02s WALL (       8 calls)
     mix_rho      :      0.00s CPU      0.00s WALL (       7 calls)

     Called by c_bands:
     init_us_2    :      0.00s CPU      0.00s WALL (      15 calls)
     regterg      :      0.10s CPU      0.11s WALL (       7 calls)

     Called by sum_band:
     sum_band:bec :      0.00s CPU      0.00s WALL (       7 calls)
     addusdens    :      0.02s CPU      0.02s WALL (       7 calls)

     Called by *egterg:
     h_psi        :      0.05s CPU      0.05s WALL (      25 calls)
     s_psi        :      0.00s CPU      0.00s WALL (      25 calls)
     g_psi        :      0.00s CPU      0.00s WALL (      17 calls)
     rdiaghg      :      0.05s CPU      0.05s WALL (      24 calls)

     Called by h_psi:
     h_psi:pot    :      0.05s CPU      0.05s WALL (      25 calls)
     h_psi:calbec :      0.00s CPU      0.00s WALL (      25 calls)
     vloc_psi     :      0.05s CPU      0.05s WALL (      25 calls)
     add_vuspsi   :      0.00s CPU      0.00s WALL (      25 calls)

     General routines
     calbec       :      0.00s CPU      0.00s WALL (      32 calls)
     fft          :      0.04s CPU      0.04s WALL (     124 calls)
     ffts         :      0.00s CPU      0.00s WALL (      15 calls)
     fftw         :      0.05s CPU      0.06s WALL (     814 calls)
     interpolate  :      0.00s CPU      0.01s WALL (      15 calls)
 
     Parallel routines
     fft_scatt_xy :      0.00s CPU      0.00s WALL (     953 calls)
     fft_scatt_yz :      0.05s CPU      0.05s WALL (     953 calls)
 
     PWSCF        :     0.75s CPU         1.47s WALL

 
   This run was terminated on:  20:40: 7  21Jun2021            

=------------------------------------------------------------------------------=
   JOB DONE.
=------------------------------------------------------------------------------=
