
     Program PWSCF v.6.2 (svn rev. 14038) starts on 21Jun2021 at 20:40:43 

     This program is part of the open-source Quantum ESPRESSO suite
     for quantum simulation of materials; please cite
         "P. Giannozzi et al., J. Phys.:Condens. Matter 21 395502 (2009);
         "P. Giannozzi et al., J. Phys.:Condens. Matter 29 465901 (2017);
          URL http://www.quantum-espresso.org", 
     in publications or presentations arising from this work. More details at
     http://www.quantum-espresso.org/quote

     Parallel version (MPI), running on    12 processors

     MPI processes distributed on     1 nodes
     R & G space division:  proc/nbgrp/npool/nimage =      12
     Waiting for input...
     Reading input from standard input

     Current dimensions of program PWSCF are:
     Max number of different atomic species (ntypx) = 10
     Max number of k-points (npk) =  40000
     Max angular momentum in pseudopotentials (lmaxx) =  3
               file Ti.pbe-mt_fhi.UPF: wavefunction(s)  4f renormalized

     gamma-point specific algorithms are used

     Subspace diagonalization in iterative solution of the eigenvalue problem:
     a serial algorithm will be used

 
     Parallelization info
     --------------------
     sticks:   dense  smooth     PW     G-vecs:    dense   smooth      PW
     Min         147      59     13                 3128      788      94
     Max         150      62     16                 3138      792     100
     Sum        1789     725    177                37603     9479    1169
 


     bravais-lattice index     =            0
     lattice parameter (alat)  =       8.7055  a.u.
     unit-cell volume          =     428.4669 (a.u.)^3
     number of atoms/cell      =            6
     number of atomic types    =            2
     number of electrons       =        32.00
     number of Kohn-Sham states=           40
     kinetic-energy cutoff     =      30.0000  Ry
     charge density cutoff     =     300.0000  Ry
     convergence threshold     =      1.0E-04
     mixing beta               =       0.3000
     number of iterations used =            8  plain     mixing
     Exchange-correlation      = PBE ( 1  4  3  4 0 0)

     celldm(1)=   8.705547  celldm(2)=   0.000000  celldm(3)=   0.000000
     celldm(4)=   0.000000  celldm(5)=   0.000000  celldm(6)=   0.000000

     crystal axes: (cart. coord. in units of alat)
               a(1) = (   1.000000   0.000000   0.000000 )  
               a(2) = (   0.000000   1.000000   0.000000 )  
               a(3) = (   0.000000   0.000000   0.649425 )  

     reciprocal axes: (cart. coord. in units 2 pi/alat)
               b(1) = (  1.000000  0.000000  0.000000 )  
               b(2) = (  0.000000  1.000000  0.000000 )  
               b(3) = (  0.000000  0.000000  1.539823 )  


     PseudoPot. # 1 for Ti read from file:
     /util/academic/espresso/6.2.1/pseudopotentials/upf_files/Ti.pbe-mt_fhi.UPF
     MD5 check sum: 639edeb71fe77a65403f758b771b521c
     Pseudo is Norm-conserving, Zval =  4.0
     Generated using FHI98PP, converted with fhi2upf.x v.5.0.2
     Using radial grid of  515 points,  3 beta functions with: 
                l(1) =   0
                l(2) =   2
                l(3) =   3

     PseudoPot. # 2 for O  read from file:
     /util/academic/espresso/6.2.1/pseudopotentials/upf_files/O.pbe-n-rrkjus_psl.0.1.UPF
     MD5 check sum: e057bbcf3229fb5d8c36c0c92f9568b4
     Pseudo is Ultrasoft + core correction, Zval =  6.0
     Generated using "atomic" code by A. Dal Corso v.5.0.2 svn rev. 9415
     Using radial grid of 1095 points,  4 beta functions with: 
                l(1) =   0
                l(2) =   0
                l(3) =   1
                l(4) =   1
     Q(r) pseudized with 0 coefficients 


     atomic species   valence    mass     pseudopotential
        Ti             4.00    47.86700     Ti( 1.00)
        O              6.00    15.99900     O ( 1.00)

     No symmetry found



   Cartesian axes

     site n.     atom                  positions (alat units)
         1           Ti  tau(   1) = (  -0.0136000   0.0034424  -0.0079426  )
         2           Ti  tau(   2) = (   0.4856691   0.5127149   0.3197309  )
         3           O   tau(   3) = (   0.6989290   0.6555098   0.0246010  )
         4           O   tau(   4) = (   0.3360440   0.3099516   0.0100859  )
         5           O   tau(   5) = (   0.2095219   0.8106063   0.3345686  )
         6           O   tau(   6) = (   0.8390707   0.1755917   0.3188373  )

     number of k points=     1  gaussian smearing, width (Ry)=  0.0100
                       cart. coord. in units 2pi/alat
        k(    1) = (   0.0000000   0.0000000   0.0000000), wk =   2.0000000

     Dense  grid:    18802 G-vectors     FFT dimensions: (  48,  48,  32)

     Smooth grid:     4740 G-vectors     FFT dimensions: (  32,  32,  20)

     Estimated max dynamical RAM per process >       5.41 MB

     Estimated total dynamical RAM >      64.87 MB

     Check: negative/imaginary core charge=   -0.000091    0.000000

     Initial potential from superposition of free atoms

     starting charge   31.99349, renormalised to   32.00000
     Starting wfc are   48 randomized atomic wfcs

     total cpu time spent up to now is        1.1 secs

     Self-consistent Calculation

     iteration #  1     ecut=    30.00 Ry     beta= 0.30
     Davidson diagonalization with overlap
     ethr =  1.00E-02,  avg # of iterations =  5.0

     total cpu time spent up to now is        1.1 secs

     total energy              =    -148.42477974 Ry
     Harris-Foulkes estimate   =    -149.32476665 Ry
     estimated scf accuracy    <       4.12380985 Ry

     iteration #  2     ecut=    30.00 Ry     beta= 0.30
     Davidson diagonalization with overlap
     ethr =  1.00E-02,  avg # of iterations =  1.0

     total cpu time spent up to now is        1.1 secs

     total energy              =    -148.56373025 Ry
     Harris-Foulkes estimate   =    -148.82501590 Ry
     estimated scf accuracy    <       0.84107893 Ry

     iteration #  3     ecut=    30.00 Ry     beta= 0.30
     Davidson diagonalization with overlap
     ethr =  2.63E-03,  avg # of iterations =  1.0

     total cpu time spent up to now is        1.2 secs

     total energy              =    -148.53908797 Ry
     Harris-Foulkes estimate   =    -148.62789044 Ry
     estimated scf accuracy    <       0.25610188 Ry

     iteration #  4     ecut=    30.00 Ry     beta= 0.30
     Davidson diagonalization with overlap
     ethr =  8.00E-04,  avg # of iterations =  1.0

     total cpu time spent up to now is        1.2 secs

     total energy              =    -148.57648704 Ry
     Harris-Foulkes estimate   =    -148.57372052 Ry
     estimated scf accuracy    <       0.01354961 Ry

     iteration #  5     ecut=    30.00 Ry     beta= 0.30
     Davidson diagonalization with overlap
     ethr =  4.23E-05,  avg # of iterations =  4.0

     total cpu time spent up to now is        1.2 secs

     total energy              =    -148.58082591 Ry
     Harris-Foulkes estimate   =    -148.57773556 Ry
     estimated scf accuracy    <       0.00522701 Ry

     iteration #  6     ecut=    30.00 Ry     beta= 0.30
     Davidson diagonalization with overlap
     ethr =  1.63E-05,  avg # of iterations =  1.0

     total cpu time spent up to now is        1.2 secs

     total energy              =    -148.58189167 Ry
     Harris-Foulkes estimate   =    -148.58119703 Ry
     estimated scf accuracy    <       0.00106583 Ry

     iteration #  7     ecut=    30.00 Ry     beta= 0.30
     Davidson diagonalization with overlap
     ethr =  3.33E-06,  avg # of iterations =  2.0

     total cpu time spent up to now is        1.3 secs

     End of self-consistent calculation

          k = 0.0000 0.0000 0.0000 (   585 PWs)   bands (ev):

   -11.8591 -10.5506  -9.7766  -9.6491   1.1094   1.7120   2.1066   2.1584
     2.8412   4.1071   4.2092   4.7672   5.6987   6.0049   6.1474   7.0294
    10.0196  10.4611  10.6047  10.7431  11.1450  11.9824  12.2377  13.7055
    14.4646  14.9353  15.7518  18.3511  18.8303  20.7839  23.1302  23.3938
    24.7948  25.3766  25.8237  26.3070  27.8472  28.7541  30.3560  30.6271

     the Fermi energy is     9.3840 ev

!    total energy              =    -148.58217575 Ry
     Harris-Foulkes estimate   =    -148.58204138 Ry
     estimated scf accuracy    <       0.00007585 Ry

     The total energy is the sum of the following terms:

     one-electron contribution =     -32.62932469 Ry
     hartree contribution      =      38.95857415 Ry
     xc contribution           =     -40.74367852 Ry
     ewald contribution        =    -114.16774669 Ry
     smearing contrib. (-TS)   =      -0.00000000 Ry

     convergence has been achieved in   7 iterations

     Writing output data file x0.save
 
     init_run     :      0.12s CPU      0.14s WALL (       1 calls)
     electrons    :      0.17s CPU      0.21s WALL (       1 calls)

     Called by init_run:
     wfcinit      :      0.01s CPU      0.01s WALL (       1 calls)
     potinit      :      0.02s CPU      0.02s WALL (       1 calls)

     Called by electrons:
     c_bands      :      0.09s CPU      0.10s WALL (       7 calls)
     sum_band     :      0.03s CPU      0.03s WALL (       7 calls)
     v_of_rho     :      0.04s CPU      0.04s WALL (       8 calls)
     newd         :      0.01s CPU      0.02s WALL (       8 calls)
     mix_rho      :      0.00s CPU      0.00s WALL (       7 calls)

     Called by c_bands:
     init_us_2    :      0.00s CPU      0.00s WALL (      15 calls)
     regterg      :      0.09s CPU      0.10s WALL (       7 calls)

     Called by sum_band:
     sum_band:bec :      0.00s CPU      0.00s WALL (       7 calls)
     addusdens    :      0.01s CPU      0.01s WALL (       7 calls)

     Called by *egterg:
     h_psi        :      0.04s CPU      0.04s WALL (      23 calls)
     s_psi        :      0.00s CPU      0.00s WALL (      23 calls)
     g_psi        :      0.00s CPU      0.00s WALL (      15 calls)
     rdiaghg      :      0.04s CPU      0.05s WALL (      22 calls)

     Called by h_psi:
     h_psi:pot    :      0.04s CPU      0.04s WALL (      23 calls)
     h_psi:calbec :      0.00s CPU      0.00s WALL (      23 calls)
     vloc_psi     :      0.03s CPU      0.04s WALL (      23 calls)
     add_vuspsi   :      0.00s CPU      0.00s WALL (      23 calls)

     General routines
     calbec       :      0.00s CPU      0.00s WALL (      30 calls)
     fft          :      0.03s CPU      0.03s WALL (     124 calls)
     ffts         :      0.00s CPU      0.00s WALL (      15 calls)
     fftw         :      0.04s CPU      0.04s WALL (     816 calls)
     interpolate  :      0.01s CPU      0.01s WALL (      15 calls)
 
     Parallel routines
     fft_scatt_xy :      0.00s CPU      0.00s WALL (     955 calls)
     fft_scatt_yz :      0.03s CPU      0.03s WALL (     955 calls)
 
     PWSCF        :     0.74s CPU         1.46s WALL

 
   This run was terminated on:  20:40:45  21Jun2021            

=------------------------------------------------------------------------------=
   JOB DONE.
=------------------------------------------------------------------------------=
