
     Program PWSCF v.6.2 (svn rev. 14038) starts on 21Jun2021 at 20:39:53 

     This program is part of the open-source Quantum ESPRESSO suite
     for quantum simulation of materials; please cite
         "P. Giannozzi et al., J. Phys.:Condens. Matter 21 395502 (2009);
         "P. Giannozzi et al., J. Phys.:Condens. Matter 29 465901 (2017);
          URL http://www.quantum-espresso.org", 
     in publications or presentations arising from this work. More details at
     http://www.quantum-espresso.org/quote

     Parallel version (MPI), running on    12 processors

     MPI processes distributed on     1 nodes
     R & G space division:  proc/nbgrp/npool/nimage =      12
     Waiting for input...
     Reading input from standard input

     Current dimensions of program PWSCF are:
     Max number of different atomic species (ntypx) = 10
     Max number of k-points (npk) =  40000
     Max angular momentum in pseudopotentials (lmaxx) =  3
               file Ti.pbe-mt_fhi.UPF: wavefunction(s)  4f renormalized

     gamma-point specific algorithms are used

     Subspace diagonalization in iterative solution of the eigenvalue problem:
     a serial algorithm will be used

 
     Parallelization info
     --------------------
     sticks:   dense  smooth     PW     G-vecs:    dense   smooth      PW
     Min         147      59     13                 3128      788      94
     Max         150      62     16                 3138      792     100
     Sum        1789     725    177                37603     9479    1169
 


     bravais-lattice index     =            0
     lattice parameter (alat)  =       8.7055  a.u.
     unit-cell volume          =     428.4669 (a.u.)^3
     number of atoms/cell      =            6
     number of atomic types    =            2
     number of electrons       =        32.00
     number of Kohn-Sham states=           40
     kinetic-energy cutoff     =      30.0000  Ry
     charge density cutoff     =     300.0000  Ry
     convergence threshold     =      1.0E-04
     mixing beta               =       0.3000
     number of iterations used =            8  plain     mixing
     Exchange-correlation      = PBE ( 1  4  3  4 0 0)

     celldm(1)=   8.705547  celldm(2)=   0.000000  celldm(3)=   0.000000
     celldm(4)=   0.000000  celldm(5)=   0.000000  celldm(6)=   0.000000

     crystal axes: (cart. coord. in units of alat)
               a(1) = (   1.000000   0.000000   0.000000 )  
               a(2) = (   0.000000   1.000000   0.000000 )  
               a(3) = (   0.000000   0.000000   0.649425 )  

     reciprocal axes: (cart. coord. in units 2 pi/alat)
               b(1) = (  1.000000  0.000000  0.000000 )  
               b(2) = (  0.000000  1.000000  0.000000 )  
               b(3) = (  0.000000  0.000000  1.539823 )  


     PseudoPot. # 1 for Ti read from file:
     /util/academic/espresso/6.2.1/pseudopotentials/upf_files/Ti.pbe-mt_fhi.UPF
     MD5 check sum: 639edeb71fe77a65403f758b771b521c
     Pseudo is Norm-conserving, Zval =  4.0
     Generated using FHI98PP, converted with fhi2upf.x v.5.0.2
     Using radial grid of  515 points,  3 beta functions with: 
                l(1) =   0
                l(2) =   2
                l(3) =   3

     PseudoPot. # 2 for O  read from file:
     /util/academic/espresso/6.2.1/pseudopotentials/upf_files/O.pbe-n-rrkjus_psl.0.1.UPF
     MD5 check sum: e057bbcf3229fb5d8c36c0c92f9568b4
     Pseudo is Ultrasoft + core correction, Zval =  6.0
     Generated using "atomic" code by A. Dal Corso v.5.0.2 svn rev. 9415
     Using radial grid of 1095 points,  4 beta functions with: 
                l(1) =   0
                l(2) =   0
                l(3) =   1
                l(4) =   1
     Q(r) pseudized with 0 coefficients 


     atomic species   valence    mass     pseudopotential
        Ti             4.00    47.86700     Ti( 1.00)
        O              6.00    15.99900     O ( 1.00)

     No symmetry found



   Cartesian axes

     site n.     atom                  positions (alat units)
         1           Ti  tau(   1) = (   0.0003303  -0.0022435  -0.0040919  )
         2           Ti  tau(   2) = (   0.4978567   0.5082423   0.3220921  )
         3           O   tau(   3) = (   0.6857494   0.6650577   0.0032119  )
         4           O   tau(   4) = (   0.3266286   0.3148459   0.0131588  )
         5           O   tau(   5) = (   0.1669903   0.8228312   0.3182019  )
         6           O   tau(   6) = (   0.8260560   0.1793175   0.3349352  )

     number of k points=     1  gaussian smearing, width (Ry)=  0.0100
                       cart. coord. in units 2pi/alat
        k(    1) = (   0.0000000   0.0000000   0.0000000), wk =   2.0000000

     Dense  grid:    18802 G-vectors     FFT dimensions: (  48,  48,  32)

     Smooth grid:     4740 G-vectors     FFT dimensions: (  32,  32,  20)

     Estimated max dynamical RAM per process >       5.41 MB

     Estimated total dynamical RAM >      64.87 MB

     Check: negative/imaginary core charge=   -0.000092    0.000000

     Initial potential from superposition of free atoms

     starting charge   31.99349, renormalised to   32.00000
     Starting wfc are   48 randomized atomic wfcs

     total cpu time spent up to now is        1.1 secs

     Self-consistent Calculation

     iteration #  1     ecut=    30.00 Ry     beta= 0.30
     Davidson diagonalization with overlap
     ethr =  1.00E-02,  avg # of iterations =  5.0

     total cpu time spent up to now is        1.1 secs

     total energy              =    -148.67581103 Ry
     Harris-Foulkes estimate   =    -149.20393054 Ry
     estimated scf accuracy    <       2.83025592 Ry

     iteration #  2     ecut=    30.00 Ry     beta= 0.30
     Davidson diagonalization with overlap
     ethr =  8.84E-03,  avg # of iterations =  1.0

     total cpu time spent up to now is        1.2 secs

     total energy              =    -148.51588816 Ry
     Harris-Foulkes estimate   =    -148.79121694 Ry
     estimated scf accuracy    <       0.74327389 Ry

     iteration #  3     ecut=    30.00 Ry     beta= 0.30
     Davidson diagonalization with overlap
     ethr =  2.32E-03,  avg # of iterations =  1.0

     total cpu time spent up to now is        1.2 secs

     total energy              =    -148.53781898 Ry
     Harris-Foulkes estimate   =    -148.57759526 Ry
     estimated scf accuracy    <       0.13611964 Ry

     iteration #  4     ecut=    30.00 Ry     beta= 0.30
     Davidson diagonalization with overlap
     ethr =  4.25E-04,  avg # of iterations =  1.0

     total cpu time spent up to now is        1.2 secs

     total energy              =    -148.55889159 Ry
     Harris-Foulkes estimate   =    -148.55711579 Ry
     estimated scf accuracy    <       0.01816776 Ry

     iteration #  5     ecut=    30.00 Ry     beta= 0.30
     Davidson diagonalization with overlap
     ethr =  5.68E-05,  avg # of iterations =  4.0

     total cpu time spent up to now is        1.2 secs

     total energy              =    -148.56252367 Ry
     Harris-Foulkes estimate   =    -148.56006406 Ry
     estimated scf accuracy    <       0.00462117 Ry

     iteration #  6     ecut=    30.00 Ry     beta= 0.30
     Davidson diagonalization with overlap
     ethr =  1.44E-05,  avg # of iterations =  1.0

     total cpu time spent up to now is        1.2 secs

     total energy              =    -148.56316649 Ry
     Harris-Foulkes estimate   =    -148.56291942 Ry
     estimated scf accuracy    <       0.00035784 Ry

     iteration #  7     ecut=    30.00 Ry     beta= 0.30
     Davidson diagonalization with overlap
     ethr =  1.12E-06,  avg # of iterations =  3.0

     total cpu time spent up to now is        1.3 secs

     End of self-consistent calculation

          k = 0.0000 0.0000 0.0000 (   585 PWs)   bands (ev):

   -11.6352 -10.3499  -9.7656  -9.6400   1.3041   1.5846   2.2650   2.4186
     2.4486   4.1505   4.1971   4.6904   5.9021   6.5646   6.6117   6.7947
     9.7722  10.3792  10.5508  10.8808  10.9273  11.5938  12.0379  13.5878
    14.9736  15.3039  16.1900  18.4051  18.4279  20.7407  23.6732  23.9582
    24.9737  25.2044  25.6226  25.7253  27.8901  28.4784  30.2825  30.4063

     the Fermi energy is     8.0547 ev

!    total energy              =    -148.56327430 Ry
     Harris-Foulkes estimate   =    -148.56321639 Ry
     estimated scf accuracy    <       0.00005083 Ry

     The total energy is the sum of the following terms:

     one-electron contribution =     -33.36808766 Ry
     hartree contribution      =      39.46891804 Ry
     xc contribution           =     -40.80465806 Ry
     ewald contribution        =    -113.85944663 Ry
     smearing contrib. (-TS)   =      -0.00000000 Ry

     convergence has been achieved in   7 iterations

     Writing output data file x0.save
 
     init_run     :      0.12s CPU      0.14s WALL (       1 calls)
     electrons    :      0.18s CPU      0.24s WALL (       1 calls)

     Called by init_run:
     wfcinit      :      0.01s CPU      0.01s WALL (       1 calls)
     potinit      :      0.02s CPU      0.02s WALL (       1 calls)

     Called by electrons:
     c_bands      :      0.10s CPU      0.10s WALL (       7 calls)
     sum_band     :      0.03s CPU      0.03s WALL (       7 calls)
     v_of_rho     :      0.03s CPU      0.04s WALL (       8 calls)
     newd         :      0.01s CPU      0.02s WALL (       8 calls)
     mix_rho      :      0.00s CPU      0.00s WALL (       7 calls)

     Called by c_bands:
     init_us_2    :      0.00s CPU      0.00s WALL (      15 calls)
     regterg      :      0.09s CPU      0.10s WALL (       7 calls)

     Called by sum_band:
     sum_band:bec :      0.00s CPU      0.00s WALL (       7 calls)
     addusdens    :      0.01s CPU      0.01s WALL (       7 calls)

     Called by *egterg:
     h_psi        :      0.04s CPU      0.04s WALL (      24 calls)
     s_psi        :      0.00s CPU      0.00s WALL (      24 calls)
     g_psi        :      0.00s CPU      0.00s WALL (      16 calls)
     rdiaghg      :      0.05s CPU      0.05s WALL (      23 calls)

     Called by h_psi:
     h_psi:pot    :      0.04s CPU      0.04s WALL (      24 calls)
     h_psi:calbec :      0.00s CPU      0.00s WALL (      24 calls)
     vloc_psi     :      0.04s CPU      0.04s WALL (      24 calls)
     add_vuspsi   :      0.00s CPU      0.00s WALL (      24 calls)

     General routines
     calbec       :      0.00s CPU      0.00s WALL (      31 calls)
     fft          :      0.03s CPU      0.03s WALL (     124 calls)
     ffts         :      0.00s CPU      0.00s WALL (      15 calls)
     fftw         :      0.04s CPU      0.04s WALL (     816 calls)
     interpolate  :      0.01s CPU      0.01s WALL (      15 calls)
 
     Parallel routines
     fft_scatt_xy :      0.00s CPU      0.00s WALL (     955 calls)
     fft_scatt_yz :      0.03s CPU      0.03s WALL (     955 calls)
 
     PWSCF        :     0.76s CPU         1.50s WALL

 
   This run was terminated on:  20:39:55  21Jun2021            

=------------------------------------------------------------------------------=
   JOB DONE.
=------------------------------------------------------------------------------=
