
     Program PWSCF v.6.2 (svn rev. 14038) starts on 23Jun2021 at 13:14:30 

     This program is part of the open-source Quantum ESPRESSO suite
     for quantum simulation of materials; please cite
         "P. Giannozzi et al., J. Phys.:Condens. Matter 21 395502 (2009);
         "P. Giannozzi et al., J. Phys.:Condens. Matter 29 465901 (2017);
          URL http://www.quantum-espresso.org", 
     in publications or presentations arising from this work. More details at
     http://www.quantum-espresso.org/quote

     Parallel version (MPI), running on     1 processors

     MPI processes distributed on     1 nodes
     Waiting for input...
     Reading input from standard input

     Current dimensions of program PWSCF are:
     Max number of different atomic species (ntypx) = 10
     Max number of k-points (npk) =  40000
     Max angular momentum in pseudopotentials (lmaxx) =  3

     gamma-point specific algorithms are used

     Subspace diagonalization in iterative solution of the eigenvalue problem:
     a serial algorithm will be used

     Found symmetry operation: I + (  0.5000 -0.5000  0.5000)
     This is a supercell, fractional translations are disabled
 
     G-vector sticks info
     --------------------
     sticks:   dense  smooth     PW     G-vecs:    dense   smooth      PW
     Sum        3445    2755    687               128413    91855   11451
 


     bravais-lattice index     =            0
     lattice parameter (alat)  =      10.2612  a.u.
     unit-cell volume          =     680.1747 (a.u.)^3
     number of atoms/cell      =           16
     number of atomic types    =            2
     number of electrons       =       136.00
     number of Kohn-Sham states=           82
     kinetic-energy cutoff     =     100.0000  Ry
     charge density cutoff     =     500.0000  Ry
     convergence threshold     =      1.0E-06
     mixing beta               =       0.3000
     number of iterations used =            8  plain     mixing
     Exchange-correlation      = PBE ( 1  4  3  4 0 0)
     nstep                     =          100


     celldm(1)=  10.261213  celldm(2)=   0.000000  celldm(3)=   0.000000
     celldm(4)=   0.000000  celldm(5)=   0.000000  celldm(6)=   0.000000

     crystal axes: (cart. coord. in units of alat)
               a(1) = (   1.000000   0.000000   0.000000 )  
               a(2) = (   0.569567   0.821945   0.000000 )  
               a(3) = (   0.569567   0.298269   0.765917 )  

     reciprocal axes: (cart. coord. in units 2 pi/alat)
               b(1) = (  1.000000 -0.692951 -0.473787 )  
               b(2) = (  0.000000  1.216627 -0.473787 )  
               b(3) = (  0.000000  0.000000  1.305624 )  


     PseudoPot. # 1 for Fe read from file:
     /projects/academic/cyberwksp21/Students/lilirass/libra/Tutorials_Libra/6_dynamics/2_nbra_workflows/2_step1_qe/Fe2O3/Fe.pbe-spn-rrkjus_psl.0.2.1.UPF
     MD5 check sum: f9af58635850a145d9bd408d58feeb93
     Pseudo is Ultrasoft + core correction, Zval = 16.0
     Generated using "atomic" code by A. Dal Corso v.5.0.2 svn rev. 9415
     Using radial grid of 1191 points,  6 beta functions with: 
                l(1) =   0
                l(2) =   0
                l(3) =   1
                l(4) =   1
                l(5) =   2
                l(6) =   2
     Q(r) pseudized with 0 coefficients 


     PseudoPot. # 2 for O  read from file:
     /projects/academic/cyberwksp21/Students/lilirass/libra/Tutorials_Libra/6_dynamics/2_nbra_workflows/2_step1_qe/Fe2O3/O.pbe-n-rrkjus_psl.1.0.0.UPF
     MD5 check sum: 91400c9766925bcf19f520983a725ff0
     Pseudo is Ultrasoft + core correction, Zval =  6.0
     Generated using "atomic" code by A. Dal Corso v.6.3MaX
     Using radial grid of 1095 points,  4 beta functions with: 
                l(1) =   0
                l(2) =   0
                l(3) =   1
                l(4) =   1
     Q(r) pseudized with 0 coefficients 


     atomic species   valence    mass     pseudopotential
        Fe            16.00    55.84700     Fe( 1.00)
        O              6.00    16.00000     O ( 1.00)

     No symmetry found



   Cartesian axes

     site n.     atom                  positions (alat units)
         1           Fe  tau(   1) = (   0.2246096   0.1176225   0.0804217  )
         2           O   tau(   2) = (   0.6952523   0.5819374   0.0000000  )
         3           Fe  tau(   3) = (   0.8449576   0.4424843   0.3025378  )
         4           Fe  tau(   4) = (   1.9145249   1.0025912   0.6854954  )
         5           Fe  tau(   5) = (   1.2941750   0.6777293   0.4633794  )
         6           O   tau(   6) = (   0.5695672   0.4511823   0.5422689  )
         7           O   tau(   7) = (   0.8743131   0.0870939   0.2236483  )
         8           O   tau(   8) = (   1.1952523   0.3200994   0.3829595  )
         9           O   tau(   9) = (   0.9438803   0.6472007   0.6066059  )
        10           O   tau(  10) = (   1.0695672   0.7130203   0.1593112  )
        11           O   tau(  11) = (   0.8743131   0.2400074   0.0000000  )
        12           O   tau(  12) = (   0.5695672   0.6690313   0.2236483  )
        13           O   tau(  13) = (   0.6952523   0.2111750   0.5422689  )
        14           O   tau(  14) = (   0.9438803   0.8001142   0.3829595  )
        15           O   tau(  15) = (   1.1952523   0.4730129   0.1593112  )
        16           O   tau(  16) = (   1.0695672   0.4071934   0.6066059  )

     number of k points=     1  gaussian smearing, width (Ry)=  0.0100
                       cart. coord. in units 2pi/alat
        k(    1) = (   0.0000000   0.0000000   0.0000000), wk =   2.0000000

     Dense  grid:    64207 G-vectors     FFT dimensions: (  75,  75,  75)

     Smooth grid:    45928 G-vectors     FFT dimensions: (  72,  72,  72)

     Estimated max dynamical RAM per process >     313.10 MB

     Check: negative/imaginary core charge=   -0.000052    0.000000

     Initial potential from superposition of free atoms

     starting charge  135.99823, renormalised to  136.00000
     Starting wfc are  100 randomized atomic wfcs

     total cpu time spent up to now is        7.3 secs

     Self-consistent Calculation

     iteration #  1     ecut=   100.00 Ry     beta= 0.30
     Davidson diagonalization with overlap
     ethr =  1.00E-02,  avg # of iterations =  2.0

     Threshold (ethr) on eigenvalues was too large:
     Diagonalizing with lowered threshold

     Davidson diagonalization with overlap
     ethr =  6.77E-04,  avg # of iterations =  4.0

     total cpu time spent up to now is       11.9 secs

     total energy              =   -1401.87059865 Ry
     Harris-Foulkes estimate   =   -1402.11450897 Ry
     estimated scf accuracy    <       0.85314605 Ry

     iteration #  2     ecut=   100.00 Ry     beta= 0.30
     Davidson diagonalization with overlap
     ethr =  6.27E-04,  avg # of iterations =  1.0

     total cpu time spent up to now is       14.0 secs

     total energy              =   -1401.75077457 Ry
     Harris-Foulkes estimate   =   -1401.91221824 Ry
     estimated scf accuracy    <       0.50352171 Ry

     iteration #  3     ecut=   100.00 Ry     beta= 0.30
     Davidson diagonalization with overlap
     ethr =  3.70E-04,  avg # of iterations =  3.0

     total cpu time spent up to now is       16.3 secs

     total energy              =   -1401.82254254 Ry
     Harris-Foulkes estimate   =   -1402.02138916 Ry
     estimated scf accuracy    <       1.75954421 Ry

     iteration #  4     ecut=   100.00 Ry     beta= 0.30
     Davidson diagonalization with overlap
     ethr =  3.70E-04,  avg # of iterations =  1.0

     total cpu time spent up to now is       18.5 secs

     total energy              =   -1401.84129574 Ry
     Harris-Foulkes estimate   =   -1401.88084946 Ry
     estimated scf accuracy    <       1.39450932 Ry

     iteration #  5     ecut=   100.00 Ry     beta= 0.30
     Davidson diagonalization with overlap
     ethr =  3.70E-04,  avg # of iterations =  1.0

     total cpu time spent up to now is       20.7 secs

     total energy              =   -1401.84368411 Ry
     Harris-Foulkes estimate   =   -1401.87430255 Ry
     estimated scf accuracy    <       0.65600015 Ry

     iteration #  6     ecut=   100.00 Ry     beta= 0.30
     Davidson diagonalization with overlap
     ethr =  3.70E-04,  avg # of iterations =  1.0

     total cpu time spent up to now is       22.8 secs

     total energy              =   -1401.83336975 Ry
     Harris-Foulkes estimate   =   -1401.88616319 Ry
     estimated scf accuracy    <       1.59262833 Ry

     iteration #  7     ecut=   100.00 Ry     beta= 0.30
     Davidson diagonalization with overlap
     ethr =  3.70E-04,  avg # of iterations =  1.0

     total cpu time spent up to now is       25.0 secs

     total energy              =   -1401.85450266 Ry
     Harris-Foulkes estimate   =   -1401.87130960 Ry
     estimated scf accuracy    <       0.15343268 Ry

     iteration #  8     ecut=   100.00 Ry     beta= 0.30
     Davidson diagonalization with overlap
     ethr =  1.13E-04,  avg # of iterations =  1.0

     total cpu time spent up to now is       27.2 secs

     total energy              =   -1401.85848865 Ry
     Harris-Foulkes estimate   =   -1401.86457026 Ry
     estimated scf accuracy    <       0.22380121 Ry

     iteration #  9     ecut=   100.00 Ry     beta= 0.30
     Davidson diagonalization with overlap
     ethr =  1.13E-04,  avg # of iterations =  1.0

     total cpu time spent up to now is       29.4 secs

     total energy              =   -1401.86074203 Ry
     Harris-Foulkes estimate   =   -1401.86293534 Ry
     estimated scf accuracy    <       0.03132955 Ry

     iteration # 10     ecut=   100.00 Ry     beta= 0.30
     Davidson diagonalization with overlap
     ethr =  2.30E-05,  avg # of iterations =  1.0

     total cpu time spent up to now is       31.5 secs

     total energy              =   -1401.86210781 Ry
     Harris-Foulkes estimate   =   -1401.86332210 Ry
     estimated scf accuracy    <       0.01712708 Ry

     iteration # 11     ecut=   100.00 Ry     beta= 0.30
     Davidson diagonalization with overlap
     ethr =  1.26E-05,  avg # of iterations =  1.0

     total cpu time spent up to now is       33.7 secs

     total energy              =   -1401.86275835 Ry
     Harris-Foulkes estimate   =   -1401.86279247 Ry
     estimated scf accuracy    <       0.00309373 Ry

     iteration # 12     ecut=   100.00 Ry     beta= 0.30
     Davidson diagonalization with overlap
     ethr =  2.27E-06,  avg # of iterations =  5.0

     total cpu time spent up to now is       36.0 secs

     total energy              =   -1401.86271817 Ry
     Harris-Foulkes estimate   =   -1401.86308345 Ry
     estimated scf accuracy    <       0.00476985 Ry

     iteration # 13     ecut=   100.00 Ry     beta= 0.30
     Davidson diagonalization with overlap
     ethr =  2.27E-06,  avg # of iterations =  1.0

     total cpu time spent up to now is       38.2 secs

     total energy              =   -1401.86296562 Ry
     Harris-Foulkes estimate   =   -1401.86297965 Ry
     estimated scf accuracy    <       0.00017856 Ry

     iteration # 14     ecut=   100.00 Ry     beta= 0.30
     Davidson diagonalization with overlap
     ethr =  1.31E-07,  avg # of iterations =  4.0

     total cpu time spent up to now is       41.2 secs

     total energy              =   -1401.86311051 Ry
     Harris-Foulkes estimate   =   -1401.86311306 Ry
     estimated scf accuracy    <       0.00003155 Ry

     iteration # 15     ecut=   100.00 Ry     beta= 0.30
     Davidson diagonalization with overlap
     ethr =  2.32E-08,  avg # of iterations =  1.0

     total cpu time spent up to now is       43.4 secs

     total energy              =   -1401.86310943 Ry
     Harris-Foulkes estimate   =   -1401.86311118 Ry
     estimated scf accuracy    <       0.00007792 Ry

     iteration # 16     ecut=   100.00 Ry     beta= 0.30
     Davidson diagonalization with overlap
     ethr =  2.32E-08,  avg # of iterations =  1.0

     total cpu time spent up to now is       45.5 secs

     total energy              =   -1401.86310824 Ry
     Harris-Foulkes estimate   =   -1401.86311078 Ry
     estimated scf accuracy    <       0.00003437 Ry

     iteration # 17     ecut=   100.00 Ry     beta= 0.30
     Davidson diagonalization with overlap
     ethr =  2.32E-08,  avg # of iterations =  1.0

     total cpu time spent up to now is       47.7 secs

     total energy              =   -1401.86310188 Ry
     Harris-Foulkes estimate   =   -1401.86311124 Ry
     estimated scf accuracy    <       0.00014172 Ry

     iteration # 18     ecut=   100.00 Ry     beta= 0.30
     Davidson diagonalization with overlap
     ethr =  2.32E-08,  avg # of iterations =  2.0

     total cpu time spent up to now is       49.9 secs

     total energy              =   -1401.86310377 Ry
     Harris-Foulkes estimate   =   -1401.86310516 Ry
     estimated scf accuracy    <       0.00001058 Ry

     iteration # 19     ecut=   100.00 Ry     beta= 0.30
     Davidson diagonalization with overlap
     ethr =  7.78E-09,  avg # of iterations =  1.0

     total cpu time spent up to now is       52.1 secs

     total energy              =   -1401.86309985 Ry
     Harris-Foulkes estimate   =   -1401.86310956 Ry
     estimated scf accuracy    <       0.00042415 Ry

     iteration # 20     ecut=   100.00 Ry     beta= 0.30
     Davidson diagonalization with overlap
     ethr =  7.78E-09,  avg # of iterations =  1.0

     total cpu time spent up to now is       54.3 secs

     total energy              =   -1401.86310466 Ry
     Harris-Foulkes estimate   =   -1401.86310492 Ry
     estimated scf accuracy    <       0.00000142 Ry

     iteration # 21     ecut=   100.00 Ry     beta= 0.30
     Davidson diagonalization with overlap
     ethr =  1.04E-09,  avg # of iterations =  4.0

     total cpu time spent up to now is       56.9 secs

     total energy              =   -1401.86310506 Ry
     Harris-Foulkes estimate   =   -1401.86310522 Ry
     estimated scf accuracy    <       0.00000121 Ry

     iteration # 22     ecut=   100.00 Ry     beta= 0.30
     Davidson diagonalization with overlap
     ethr =  8.89E-10,  avg # of iterations =  1.0

     total cpu time spent up to now is       59.0 secs

     End of self-consistent calculation

          k = 0.0000 0.0000 0.0000 (  5726 PWs)   bands (ev):

   -69.1252 -69.1208 -69.1189 -69.1156 -35.5625 -35.5624 -35.5563 -35.5563
   -35.5227 -35.5227 -35.5141 -35.5141 -34.9002 -34.8773 -34.8354 -34.8335
   -10.7490  -9.3087  -7.4643  -7.4642  -7.0696  -7.0695  -3.3776  -3.3776
    -2.9365  -2.9365   3.3775   3.5536   4.4398   4.5762   5.0082   5.2741
     5.3406   7.8822   7.8822   8.4171   8.4171   8.6148   8.6148  10.4949
    10.5892  10.5892  10.6375  10.6375  10.8017  10.8018  12.2955  12.2956
    13.9485  13.9485  14.8986  15.4289  15.4289  15.7418  15.7418  15.8740
    15.8740  16.4258  17.0657  17.1073  17.1073  17.2784  17.7668  17.7668
    17.8793  17.8978  17.8978  18.0140  18.0140  18.0392  18.3153  18.3153
    19.7514  19.7514  19.9710  19.9710  20.1365  20.1365  20.7602  20.9369
    21.5860  21.5860

     the Fermi energy is    18.0096 ev

!    total energy              =   -1401.86310471 Ry
     Harris-Foulkes estimate   =   -1401.86310520 Ry
     estimated scf accuracy    <       0.00000055 Ry

     convergence has been achieved in  22 iterations

     Forces acting on atoms (cartesian axes, Ry/au):

     atom    1 type  1   force =     0.06331053    0.03312832    0.02274275
     atom    2 type  2   force =     0.16146843   -0.30841468   -0.00000177
     atom    3 type  1   force =    -0.06361162   -0.03329956   -0.02280026
     atom    4 type  1   force =    -0.06296309   -0.03296249   -0.02257235
     atom    5 type  1   force =     0.06363168    0.03332098    0.02274821
     atom    6 type  2   force =    -0.00003312    0.19648728   -0.28731446
     atom    7 type  2   force =    -0.16153155    0.11192601    0.28734140
     atom    8 type  2   force =     0.16141228   -0.30830833   -0.00003754
     atom    9 type  2   force =    -0.16147149    0.11185819    0.28725819
     atom   10 type  2   force =    -0.00002611    0.19638503   -0.28729381
     atom   11 type  2   force =    -0.16151115    0.30835119   -0.00002029
     atom   12 type  2   force =    -0.00000412   -0.19653210    0.28734735
     atom   13 type  2   force =     0.16146495   -0.11192071   -0.28737264
     atom   14 type  2   force =    -0.16148263    0.30826910   -0.00000665
     atom   15 type  2   force =     0.16139176   -0.11187626   -0.28728768
     atom   16 type  2   force =    -0.00004474   -0.19641196    0.28726956

     Total force =     1.215002     Total SCF correction =     0.001693

     Molecular Dynamics Calculation

     Starting temperature  =   300.00 K

     temperature is controlled by Andersen thermostat
     Collision frequency = 0.1000/timestep
     mass Fe               =    55.85
     mass O                =    16.00
     Time step             =    20.67 a.u.,  1.0000 femto-seconds

     Entering Dynamics:    iteration =     1
                           time      =   0.0010 pico-seconds


     Andersen thermostat:    2 collisions

ATOMIC_POSITIONS (angstrom)
Fe       1.221328298   0.637426044   0.435242604
O        3.771154150   3.152112737  -0.007165962
Fe       4.591352648   2.399712741   1.643666835
Fe      10.394056887   5.447512894   3.724064396
Fe       7.028838638   3.679609260   2.516615034
O        3.090743907   2.453479771   2.942726169
O        4.745201880   0.468277043   1.216924825
O        6.492848552   1.736958834   2.075976333
O        5.128448205   3.514394761   3.294871059
O        5.801052993   3.876431598   0.858557418
O        4.739318165   1.308075671  -0.003835715
O        3.089743819   3.634857553   1.216461331
O        3.771918166   1.149306798   2.938928941
O        5.129087659   4.348233689   2.081161754
O        6.488690677   2.569939559   0.869192373
O        5.813243036   2.206126659   3.304826966


     kinetic energy (Ekin) =     0.04655597 Ry
     temperature           =   326.69324684 K 
     Ekin + Etot (const)   = -1401.81654873 Ry

     Linear momentum :    0.0000000000    0.0000000000   -0.0000000000

     Writing output data file x0.save
     NEW-OLD atomic charge density approx. for the potential

     Check: negative/imaginary core charge=   -0.000052    0.000000

     total cpu time spent up to now is       67.1 secs

     Self-consistent Calculation

     iteration #  1     ecut=   100.00 Ry     beta= 0.30
     Davidson diagonalization with overlap
     ethr =  1.00E-06,  avg # of iterations =  5.0

     total cpu time spent up to now is       70.8 secs

     total energy              =   -1401.88419993 Ry
     Harris-Foulkes estimate   =   -1401.88937306 Ry
     estimated scf accuracy    <       0.01117185 Ry

     iteration #  2     ecut=   100.00 Ry     beta= 0.30
     Davidson diagonalization with overlap
     ethr =  8.21E-06,  avg # of iterations =  3.0

     total cpu time spent up to now is       73.1 secs

     total energy              =   -1401.86297290 Ry
     Harris-Foulkes estimate   =   -1401.91728144 Ry
     estimated scf accuracy    <       1.41897239 Ry

     iteration #  3     ecut=   100.00 Ry     beta= 0.30
     Davidson diagonalization with overlap
     ethr =  8.21E-06,  avg # of iterations =  2.0

     total cpu time spent up to now is       75.3 secs

     total energy              =   -1401.88242634 Ry
     Harris-Foulkes estimate   =   -1401.89617807 Ry
     estimated scf accuracy    <       0.35024191 Ry

     iteration #  4     ecut=   100.00 Ry     beta= 0.30
     Davidson diagonalization with overlap
     ethr =  8.21E-06,  avg # of iterations =  2.0

     total cpu time spent up to now is       77.5 secs

     total energy              =   -1401.88806190 Ry
     Harris-Foulkes estimate   =   -1401.88946345 Ry
     estimated scf accuracy    <       0.03838897 Ry

     iteration #  5     ecut=   100.00 Ry     beta= 0.30
     Davidson diagonalization with overlap
     ethr =  8.21E-06,  avg # of iterations =  1.0

     total cpu time spent up to now is       79.7 secs

     total energy              =   -1401.88871922 Ry
     Harris-Foulkes estimate   =   -1401.88896462 Ry
     estimated scf accuracy    <       0.00391153 Ry

     iteration #  6     ecut=   100.00 Ry     beta= 0.30
     Davidson diagonalization with overlap
     ethr =  2.88E-06,  avg # of iterations =  1.0

     total cpu time spent up to now is       81.8 secs

     total energy              =   -1401.88816774 Ry
     Harris-Foulkes estimate   =   -1401.88958679 Ry
     estimated scf accuracy    <       0.05915688 Ry

     iteration #  7     ecut=   100.00 Ry     beta= 0.30
     Davidson diagonalization with overlap
     ethr =  2.88E-06,  avg # of iterations =  1.0

     total cpu time spent up to now is       84.0 secs

     total energy              =   -1401.88887645 Ry
     Harris-Foulkes estimate   =   -1401.88889842 Ry
     estimated scf accuracy    <       0.00017049 Ry

     iteration #  8     ecut=   100.00 Ry     beta= 0.30
     Davidson diagonalization with overlap
     ethr =  1.25E-07,  avg # of iterations =  1.0

     total cpu time spent up to now is       86.1 secs

     total energy              =   -1401.88888515 Ry
     Harris-Foulkes estimate   =   -1401.88889455 Ry
     estimated scf accuracy    <       0.00012637 Ry

     iteration #  9     ecut=   100.00 Ry     beta= 0.30
     Davidson diagonalization with overlap
     ethr =  9.29E-08,  avg # of iterations =  1.0

     total cpu time spent up to now is       88.3 secs

     total energy              =   -1401.88889107 Ry
     Harris-Foulkes estimate   =   -1401.88889209 Ry
     estimated scf accuracy    <       0.00001064 Ry

     iteration # 10     ecut=   100.00 Ry     beta= 0.30
     Davidson diagonalization with overlap
     ethr =  7.82E-09,  avg # of iterations =  4.0

     total cpu time spent up to now is       91.2 secs

     total energy              =   -1401.88889497 Ry
     Harris-Foulkes estimate   =   -1401.88889565 Ry
     estimated scf accuracy    <       0.00000560 Ry

     iteration # 11     ecut=   100.00 Ry     beta= 0.30
     Davidson diagonalization with overlap
     ethr =  4.12E-09,  avg # of iterations =  1.0

     total cpu time spent up to now is       93.3 secs

     End of self-consistent calculation

          k = 0.0000 0.0000 0.0000 (  5726 PWs)   bands (ev):

   -69.1710 -69.1487 -69.1434 -69.1255 -35.6055 -35.5976 -35.5841 -35.5718
   -35.5584 -35.5472 -35.5353 -35.5254 -34.9315 -34.9066 -34.8560 -34.8472
   -10.6960  -9.2440  -7.4388  -7.3922  -7.0329  -6.9759  -3.4023  -3.3473
    -2.9416  -2.8927   3.3553   3.5881   4.4836   4.5554   5.0165   5.2972
     5.3673   7.8292   7.8925   8.3959   8.4562   8.6246   8.6664  10.5376
    10.6036  10.6284  10.6561  10.6796  10.7997  10.8572  12.2934  12.3228
    13.9499  13.9575  14.8815  15.3997  15.4124  15.6977  15.7212  15.8102
    15.8534  16.4040  17.0362  17.0516  17.0880  17.2747  17.7331  17.7515
    17.8660  17.8767  17.8808  17.9980  18.0101  18.0359  18.2889  18.2980
    19.7194  19.7304  19.9220  19.9649  20.1095  20.1150  20.7325  20.9086
    21.5289  21.5784

     the Fermi energy is    17.9985 ev

!    total energy              =   -1401.88889498 Ry
     Harris-Foulkes estimate   =   -1401.88889531 Ry
     estimated scf accuracy    <       0.00000078 Ry

     convergence has been achieved in  11 iterations

     Forces acting on atoms (cartesian axes, Ry/au):

     atom    1 type  1   force =     0.05883469    0.03053059    0.01999533
     atom    2 type  2   force =     0.15681747   -0.30321402    0.00110339
     atom    3 type  1   force =    -0.06683763   -0.03376797   -0.02489160
     atom    4 type  1   force =    -0.06516777   -0.03276616   -0.02282098
     atom    5 type  1   force =     0.05631260    0.03178739    0.02169597
     atom    6 type  2   force =     0.00982015    0.19386928   -0.28152826
     atom    7 type  2   force =    -0.15177001    0.10923720    0.28415649
     atom    8 type  2   force =     0.15676630   -0.30534079   -0.00448573
     atom    9 type  2   force =    -0.15590658    0.10797140    0.27587175
     atom   10 type  2   force =    -0.00322564    0.19309024   -0.29198879
     atom   11 type  2   force =    -0.15612509    0.30835215    0.00530353
     atom   12 type  2   force =     0.00414261   -0.18664227    0.28506788
     atom   13 type  2   force =     0.15564447   -0.10254456   -0.28217484
     atom   14 type  2   force =    -0.15466941    0.30125773    0.00432660
     atom   15 type  2   force =     0.15876862   -0.11276783   -0.27692588
     atom   16 type  2   force =    -0.00340477   -0.19905237    0.28729514

     Total force =     1.193563     Total SCF correction =     0.003088

     Entering Dynamics:    iteration =     2
                           time      =   0.0020 pico-seconds


     Andersen thermostat:    1 collisions

ATOMIC_POSITIONS (angstrom)
Fe       1.223103342   0.636497795   0.433885154
O        3.769335066   3.139804412  -0.014313690
Fe       4.594103809   2.396785578   1.644444229
Fe      10.391769705   5.451010333   3.725788548
Fe       7.030372819   3.679489811   2.517177566
O        3.093497908   2.455050734   2.936539288
O        4.740346061   0.465527835   1.223846454
O        6.497723077   1.731243632   2.072414244
O        5.129024576   3.516363645   3.300150472
O        5.794121378   3.884357037   0.847528851
O        4.728511107   1.317892250  -0.007588076
O        3.086617272   3.634181419   1.222933596
O        3.770844911   1.150543795   2.928964056
O        5.130322664   4.356718292   2.082921717
O        6.489438370   2.569870811   0.869032301
O        5.818498687   2.198307221   3.320239398


     kinetic energy (Ekin) =     0.07078498 Ry
     temperature           =   496.71336966 K 
     Ekin + Etot (const)   = -1401.81811001 Ry
     Message from routine dynamics:
     Total linear momentum <> 0

     Linear momentum :    0.3113324584   -0.3374667002   -0.0019000591

     Writing output data file x0.save

     first order wave-functions extrapolation
     first order charge density extrapolation

     Check: negative/imaginary core charge=   -0.000052    0.000000

     total cpu time spent up to now is      101.8 secs

     Self-consistent Calculation

     iteration #  1     ecut=   100.00 Ry     beta= 0.30
     Davidson diagonalization with overlap
     ethr =  1.00E-06,  avg # of iterations =  4.0

     total cpu time spent up to now is      105.3 secs

     total energy              =   -1401.94919178 Ry
     Harris-Foulkes estimate   =   -1401.95301901 Ry
     estimated scf accuracy    <       0.00802368 Ry

     iteration #  2     ecut=   100.00 Ry     beta= 0.30
     Davidson diagonalization with overlap
     ethr =  5.90E-06,  avg # of iterations =  3.0

     total cpu time spent up to now is      107.6 secs

     total energy              =   -1401.93036163 Ry
     Harris-Foulkes estimate   =   -1401.97731681 Ry
     estimated scf accuracy    <       1.33641455 Ry

     iteration #  3     ecut=   100.00 Ry     beta= 0.30
     Davidson diagonalization with overlap
     ethr =  5.90E-06,  avg # of iterations =  2.0

     total cpu time spent up to now is      109.8 secs

     total energy              =   -1401.94878252 Ry
     Harris-Foulkes estimate   =   -1401.95739096 Ry
     estimated scf accuracy    <       0.19736856 Ry

     iteration #  4     ecut=   100.00 Ry     beta= 0.30
     Davidson diagonalization with overlap
     ethr =  5.90E-06,  avg # of iterations =  2.0

     total cpu time spent up to now is      112.0 secs

     total energy              =   -1401.95255017 Ry
     Harris-Foulkes estimate   =   -1401.95295060 Ry
     estimated scf accuracy    <       0.01431654 Ry

     iteration #  5     ecut=   100.00 Ry     beta= 0.30
     Davidson diagonalization with overlap
     ethr =  5.90E-06,  avg # of iterations =  1.0

     total cpu time spent up to now is      114.2 secs

     total energy              =   -1401.95273810 Ry
     Harris-Foulkes estimate   =   -1401.95279435 Ry
     estimated scf accuracy    <       0.00103867 Ry

     iteration #  6     ecut=   100.00 Ry     beta= 0.30
     Davidson diagonalization with overlap
     ethr =  7.64E-07,  avg # of iterations =  1.0

     total cpu time spent up to now is      116.3 secs

     total energy              =   -1401.95268726 Ry
     Harris-Foulkes estimate   =   -1401.95286023 Ry
     estimated scf accuracy    <       0.00542943 Ry

     iteration #  7     ecut=   100.00 Ry     beta= 0.30
     Davidson diagonalization with overlap
     ethr =  7.64E-07,  avg # of iterations =  1.0

     total cpu time spent up to now is      118.5 secs

     total energy              =   -1401.95277373 Ry
     Harris-Foulkes estimate   =   -1401.95278010 Ry
     estimated scf accuracy    <       0.00004591 Ry

     iteration #  8     ecut=   100.00 Ry     beta= 0.30
     Davidson diagonalization with overlap
     ethr =  3.38E-08,  avg # of iterations =  2.0

     total cpu time spent up to now is      120.6 secs

     total energy              =   -1401.95277545 Ry
     Harris-Foulkes estimate   =   -1401.95278181 Ry
     estimated scf accuracy    <       0.00010323 Ry

     iteration #  9     ecut=   100.00 Ry     beta= 0.30
     Davidson diagonalization with overlap
     ethr =  3.38E-08,  avg # of iterations =  1.0

     total cpu time spent up to now is      122.8 secs

     total energy              =   -1401.95277827 Ry
     Harris-Foulkes estimate   =   -1401.95277965 Ry
     estimated scf accuracy    <       0.00001443 Ry

     iteration # 10     ecut=   100.00 Ry     beta= 0.30
     Davidson diagonalization with overlap
     ethr =  1.06E-08,  avg # of iterations =  4.0

     total cpu time spent up to now is      125.0 secs

     total energy              =   -1401.95277963 Ry
     Harris-Foulkes estimate   =   -1401.95278000 Ry
     estimated scf accuracy    <       0.00000518 Ry

     iteration # 11     ecut=   100.00 Ry     beta= 0.30
     Davidson diagonalization with overlap
     ethr =  3.81E-09,  avg # of iterations =  4.0

     total cpu time spent up to now is      127.6 secs

     End of self-consistent calculation

          k = 0.0000 0.0000 0.0000 (  5726 PWs)   bands (ev):

   -69.2537 -69.2211 -69.2113 -69.1814 -35.6980 -35.6741 -35.6607 -35.6357
   -35.6313 -35.6073 -35.5969 -35.5723 -35.0021 -34.9743 -34.9142 -34.8950
   -10.5647  -9.0841  -7.3591  -7.2414  -6.8997  -6.7622  -3.4353  -3.3145
    -2.9242  -2.8108   3.3005   3.6737   4.5043   4.5929   5.0364   5.3549
     5.4334   7.7396   7.8674   8.3818   8.5182   8.6711   8.7758  10.6273
    10.6556  10.6703  10.7637  10.7758  10.8329  10.9632  12.3101  12.3814
    13.9554  13.9801  14.8403  15.3291  15.3653  15.6069  15.6555  15.6794
    15.7657  16.3504  16.9079  16.9851  17.0112  17.2617  17.6607  17.6988
    17.8217  17.8340  17.8374  17.9659  17.9976  18.0269  18.2276  18.2478
    19.6427  19.6737  19.8251  19.9234  20.0417  20.0588  20.6689  20.8424
    21.4159  21.5320

     the Fermi energy is    17.9725 ev

!    total energy              =   -1401.95278060 Ry
     Harris-Foulkes estimate   =   -1401.95278115 Ry
     estimated scf accuracy    <       0.00000075 Ry

     convergence has been achieved in  11 iterations

     Forces acting on atoms (cartesian axes, Ry/au):

     atom    1 type  1   force =     0.04900418    0.02513002    0.01581110
     atom    2 type  2   force =     0.14876938   -0.29031819    0.00297175
     atom    3 type  1   force =    -0.06364378   -0.03114369   -0.02597601
     atom    4 type  1   force =    -0.05880783   -0.02829641   -0.01999794
     atom    5 type  1   force =     0.04203379    0.02451990    0.01860730
     atom    6 type  2   force =     0.02001773    0.18268751   -0.26874366
     atom    7 type  2   force =    -0.13689644    0.10231140    0.27163218
     atom    8 type  2   force =     0.14775118   -0.29229167   -0.00704720
     atom    9 type  2   force =    -0.14615116    0.10207786    0.25494104
     atom   10 type  2   force =    -0.00599790    0.18332746   -0.28643732
     atom   11 type  2   force =    -0.14840089    0.30028587    0.01133652
     atom   12 type  2   force =     0.00698872   -0.17110136    0.27476947
     atom   13 type  2   force =     0.14612343   -0.08896163   -0.27001562
     atom   14 type  2   force =    -0.14472149    0.28512523    0.00909886
     atom   15 type  2   force =     0.14992851   -0.10861772   -0.25805251
     atom   16 type  2   force =    -0.00599743   -0.19473458    0.27710205

     Total force =     1.135255     Total SCF correction =     0.002365

     Entering Dynamics:    iteration =     3
                           time      =   0.0030 pico-seconds


     Andersen thermostat:    1 collisions

ATOMIC_POSITIONS (angstrom)
Fe       1.224310420   0.635993714   0.432825324
O        3.769036922   3.123307418  -0.021187955
Fe       4.595786626   2.394032617   1.645333627
Fe      10.394279226   5.452369951   3.725959950
Fe       7.031308072   3.679791819   2.518050141
O        3.095776631   2.459766701   2.926413086
O        4.732582103   0.464677446   1.235206968
O        6.504102755   1.721309163   2.068970281
O        5.126549319   3.520227727   3.309609983
O        5.786311129   3.895437401   0.832286632
O        4.714617541   1.332677124  -0.010937282
O        3.082813439   3.631165003   1.233893387
O        3.771251573   1.150714036   2.915040127
O        5.128528209   4.369936133   2.085050140
O        6.491724976   2.568430552   0.865098667
O        5.822875710   2.187781081   3.340175522


     kinetic energy (Ekin) =     0.13162673 Ry
     temperature           =   923.65299750 K 
     Ekin + Etot (const)   = -1401.82115387 Ry
     Message from routine dynamics:
     Total linear momentum <> 0

     Linear momentum :    1.3250311663   -0.5271201692   -0.3835049442

     Writing output data file x0.save

     second order wave-functions extrapolation
     second order charge density extrapolation

     Check: negative/imaginary core charge=   -0.000052    0.000000

     total cpu time spent up to now is      135.8 secs

     Self-consistent Calculation

     iteration #  1     ecut=   100.00 Ry     beta= 0.30
     Davidson diagonalization with overlap
     ethr =  1.00E-06,  avg # of iterations =  5.0

     total cpu time spent up to now is      139.4 secs

     total energy              =   -1402.04549611 Ry
     Harris-Foulkes estimate   =   -1402.04842606 Ry
     estimated scf accuracy    <       0.00614360 Ry

     iteration #  2     ecut=   100.00 Ry     beta= 0.30
     Davidson diagonalization with overlap
     ethr =  4.52E-06,  avg # of iterations =  3.0

     total cpu time spent up to now is      141.7 secs

     total energy              =   -1402.02145043 Ry
     Harris-Foulkes estimate   =   -1402.07919764 Ry
     estimated scf accuracy    <       2.05152617 Ry

     iteration #  3     ecut=   100.00 Ry     beta= 0.30
     Davidson diagonalization with overlap
     ethr =  4.52E-06,  avg # of iterations =  2.0

     total cpu time spent up to now is      144.0 secs

     total energy              =   -1402.04781800 Ry
     Harris-Foulkes estimate   =   -1402.04863010 Ry
     estimated scf accuracy    <       0.00979135 Ry

     iteration #  4     ecut=   100.00 Ry     beta= 0.30
     Davidson diagonalization with overlap
     ethr =  4.52E-06,  avg # of iterations =  1.0

     total cpu time spent up to now is      146.2 secs

     total energy              =   -1402.04808722 Ry
     Harris-Foulkes estimate   =   -1402.04833769 Ry
     estimated scf accuracy    <       0.00453067 Ry

     iteration #  5     ecut=   100.00 Ry     beta= 0.30
     Davidson diagonalization with overlap
     ethr =  3.33E-06,  avg # of iterations =  1.0

     total cpu time spent up to now is      148.3 secs

     total energy              =   -1402.04812353 Ry
     Harris-Foulkes estimate   =   -1402.04840564 Ry
     estimated scf accuracy    <       0.00962364 Ry

     iteration #  6     ecut=   100.00 Ry     beta= 0.30
     Davidson diagonalization with overlap
     ethr =  3.33E-06,  avg # of iterations =  1.0

     total cpu time spent up to now is      150.5 secs

     total energy              =   -1402.04824357 Ry
     Harris-Foulkes estimate   =   -1402.04827777 Ry
     estimated scf accuracy    <       0.00033731 Ry

     iteration #  7     ecut=   100.00 Ry     beta= 0.30
     Davidson diagonalization with overlap
     ethr =  2.48E-07,  avg # of iterations =  1.0

     total cpu time spent up to now is      152.6 secs

     total energy              =   -1402.04822376 Ry
     Harris-Foulkes estimate   =   -1402.04831964 Ry
     estimated scf accuracy    <       0.00302272 Ry

     iteration #  8     ecut=   100.00 Ry     beta= 0.30
     Davidson diagonalization with overlap
     ethr =  2.48E-07,  avg # of iterations =  1.0

     total cpu time spent up to now is      154.8 secs

     total energy              =   -1402.04827064 Ry
     Harris-Foulkes estimate   =   -1402.04827455 Ry
     estimated scf accuracy    <       0.00003131 Ry

     iteration #  9     ecut=   100.00 Ry     beta= 0.30
     Davidson diagonalization with overlap
     ethr =  2.30E-08,  avg # of iterations =  3.0

     total cpu time spent up to now is      157.0 secs

     total energy              =   -1402.04827344 Ry
     Harris-Foulkes estimate   =   -1402.04827443 Ry
     estimated scf accuracy    <       0.00001139 Ry

     iteration # 10     ecut=   100.00 Ry     beta= 0.30
     Davidson diagonalization with overlap
     ethr =  8.38E-09,  avg # of iterations =  2.0

     total cpu time spent up to now is      159.1 secs

     total energy              =   -1402.04827444 Ry
     Harris-Foulkes estimate   =   -1402.04827461 Ry
     estimated scf accuracy    <       0.00000141 Ry

     iteration # 11     ecut=   100.00 Ry     beta= 0.30
     Davidson diagonalization with overlap
     ethr =  1.03E-09,  avg # of iterations =  4.0

     total cpu time spent up to now is      162.3 secs

     End of self-consistent calculation

          k = 0.0000 0.0000 0.0000 (  5726 PWs)   bands (ev):

   -69.3766 -69.3345 -69.3175 -69.2792 -35.8328 -35.7926 -35.7790 -35.7446
   -35.7408 -35.7013 -35.6950 -35.6557 -35.1106 -35.0812 -35.0071 -34.9797
   -10.3652  -8.8401  -7.2115  -7.0296  -6.6562  -6.4595  -3.4731  -3.2944
    -2.8842  -2.7151   3.2187   3.8024   4.4304   4.7605   5.0645   5.4432
     5.5329   7.6236   7.8110   8.3837   8.5937   8.7631   8.9317  10.6780
    10.7428  10.7950  10.8850  10.9139  10.9575  11.1079  12.3625  12.4763
    13.9640  14.0100  14.7788  15.2173  15.2867  15.4758  15.4823  15.5511
    15.6151  16.2622  16.7090  16.8678  16.8988  17.2394  17.5555  17.6126
    17.7377  17.7686  17.7804  17.9238  17.9739  18.0088  18.1361  18.1665
    19.5260  19.5799  19.6955  19.8414  19.9414  19.9693  20.5790  20.7485
    21.2642  21.4441

     the Fermi energy is    17.9335 ev

!    total energy              =   -1402.04827534 Ry
     Harris-Foulkes estimate   =   -1402.04827550 Ry
     estimated scf accuracy    <       0.00000040 Ry

     convergence has been achieved in  11 iterations

     Forces acting on atoms (cartesian axes, Ry/au):

     atom    1 type  1   force =     0.03158024    0.01483715    0.00829163
     atom    2 type  2   force =     0.13767638   -0.26795417    0.00714124
     atom    3 type  1   force =    -0.05301508   -0.02327120   -0.02390723
     atom    4 type  1   force =    -0.05160414   -0.01955604   -0.01334564
     atom    5 type  1   force =     0.02269390    0.01357347    0.01271438
     atom    6 type  2   force =     0.02963998    0.16530157   -0.24894628
     atom    7 type  2   force =    -0.11816942    0.09280548    0.24882385
     atom    8 type  2   force =     0.13434287   -0.26968799   -0.00604490
     atom    9 type  2   force =    -0.13291797    0.09400685    0.22667447
     atom   10 type  2   force =    -0.00697586    0.16563431   -0.27032462
     atom   11 type  2   force =    -0.13639174    0.28081099    0.01717754
     atom   12 type  2   force =     0.01058719   -0.15244743    0.25513148
     atom   13 type  2   force =     0.13360224   -0.07098817   -0.24968496
     atom   14 type  2   force =    -0.13154131    0.26001362    0.01386463
     atom   15 type  2   force =     0.13719146   -0.09949676   -0.23235607
     atom   16 type  2   force =    -0.00669874   -0.18358170    0.25479049

     Total force =     1.040161     Total SCF correction =     0.002958

     Entering Dynamics:    iteration =     4
                           time      =   0.0040 pico-seconds


     Andersen thermostat:    3 collisions

ATOMIC_POSITIONS (angstrom)
Fe       1.225631714   0.635704415   0.431716831
O        3.770847306   3.102804830  -0.028036993
Fe       4.597207889   2.391325161   1.646031335
Fe      10.396533461   5.453791577   3.725986576
Fe       7.032318068   3.680302996   2.518893697
O        3.098488842   2.467194445   2.912341624
O        4.730341126   0.473825131   1.246390381
O        6.512539277   1.707342218   2.065347100
O        5.121987185   3.525698206   3.322498452
O        5.778366661   3.909234702   0.812767696
O        4.698583239   1.351964681  -0.014105656
O        3.079147692   3.625933855   1.248723345
O        3.773703594   1.149932524   2.897159487
O        5.123555563   4.374977820   2.087741895
O        6.490520696   2.565677537   0.863212203
O        5.827122811   2.174557491   3.363976525


     kinetic energy (Ekin) =     0.20479970 Ry
     temperature           =  1437.12337142 K 
     Ekin + Etot (const)   = -1401.84347564 Ry
     Message from routine dynamics:
     Total linear momentum <> 0

     Linear momentum :    0.0439567084   -0.2510881383    0.1441926629

     Writing output data file x0.save

     second order wave-functions extrapolation
     second order charge density extrapolation

     Check: negative/imaginary core charge=   -0.000052    0.000000

     total cpu time spent up to now is      170.6 secs

     Self-consistent Calculation

     iteration #  1     ecut=   100.00 Ry     beta= 0.30
     Davidson diagonalization with overlap
     ethr =  1.00E-06,  avg # of iterations =  4.0

     total cpu time spent up to now is      174.0 secs

     total energy              =   -1402.15098949 Ry
     Harris-Foulkes estimate   =   -1402.15375357 Ry
     estimated scf accuracy    <       0.00589806 Ry

     iteration #  2     ecut=   100.00 Ry     beta= 0.30
     Davidson diagonalization with overlap
     ethr =  4.34E-06,  avg # of iterations =  3.0

     total cpu time spent up to now is      176.4 secs

     total energy              =   -1402.13039062 Ry
     Harris-Foulkes estimate   =   -1402.17979617 Ry
     estimated scf accuracy    <       1.63662788 Ry

     iteration #  3     ecut=   100.00 Ry     beta= 0.30
     Davidson diagonalization with overlap
     ethr =  4.34E-06,  avg # of iterations =  2.0

     total cpu time spent up to now is      178.6 secs

     total energy              =   -1402.15301453 Ry
     Harris-Foulkes estimate   =   -1402.15395873 Ry
     estimated scf accuracy    <       0.01261451 Ry

     iteration #  4     ecut=   100.00 Ry     beta= 0.30
     Davidson diagonalization with overlap
     ethr =  4.34E-06,  avg # of iterations =  1.0

     total cpu time spent up to now is      180.8 secs

     total energy              =   -1402.15315341 Ry
     Harris-Foulkes estimate   =   -1402.15385171 Ry
     estimated scf accuracy    <       0.01963368 Ry

     iteration #  5     ecut=   100.00 Ry     beta= 0.30
     Davidson diagonalization with overlap
     ethr =  4.34E-06,  avg # of iterations =  1.0

     total cpu time spent up to now is      182.9 secs

     total energy              =   -1402.15348425 Ry
     Harris-Foulkes estimate   =   -1402.15364351 Ry
     estimated scf accuracy    <       0.00287520 Ry

     iteration #  6     ecut=   100.00 Ry     beta= 0.30
     Davidson diagonalization with overlap
     ethr =  2.11E-06,  avg # of iterations =  1.0

     total cpu time spent up to now is      185.1 secs

     total energy              =   -1402.15349441 Ry
     Harris-Foulkes estimate   =   -1402.15361771 Ry
     estimated scf accuracy    <       0.00286116 Ry

     iteration #  7     ecut=   100.00 Ry     beta= 0.30
     Davidson diagonalization with overlap
     ethr =  2.10E-06,  avg # of iterations =  1.0

     total cpu time spent up to now is      187.2 secs

     total energy              =   -1402.15354724 Ry
     Harris-Foulkes estimate   =   -1402.15359986 Ry
     estimated scf accuracy    <       0.00137965 Ry

     iteration #  8     ecut=   100.00 Ry     beta= 0.30
     Davidson diagonalization with overlap
     ethr =  1.01E-06,  avg # of iterations =  1.0

     total cpu time spent up to now is      189.4 secs

     total energy              =   -1402.15357089 Ry
     Harris-Foulkes estimate   =   -1402.15357779 Ry
     estimated scf accuracy    <       0.00004947 Ry

     iteration #  9     ecut=   100.00 Ry     beta= 0.30
     Davidson diagonalization with overlap
     ethr =  3.64E-08,  avg # of iterations =  1.0

     total cpu time spent up to now is      191.5 secs

     total energy              =   -1402.15357473 Ry
     Harris-Foulkes estimate   =   -1402.15357534 Ry
     estimated scf accuracy    <       0.00001196 Ry

     iteration # 10     ecut=   100.00 Ry     beta= 0.30
     Davidson diagonalization with overlap
     ethr =  8.80E-09,  avg # of iterations =  3.0

     total cpu time spent up to now is      193.7 secs

     total energy              =   -1402.15357570 Ry
     Harris-Foulkes estimate   =   -1402.15357581 Ry
     estimated scf accuracy    <       0.00000109 Ry

     iteration # 11     ecut=   100.00 Ry     beta= 0.30
     Davidson diagonalization with overlap
     ethr =  8.03E-10,  avg # of iterations =  4.0

     total cpu time spent up to now is      197.0 secs

     End of self-consistent calculation

          k = 0.0000 0.0000 0.0000 (  5726 PWs)   bands (ev):

   -69.5111 -69.4651 -69.4306 -69.4150 -35.9751 -35.9213 -35.9207 -35.8797
   -35.8670 -35.8065 -35.7936 -35.7715 -35.2314 -35.2042 -35.1147 -35.1085
   -10.1413  -8.5665  -7.0031  -6.8141  -6.3542  -6.1115  -3.5340  -3.2971
    -2.8459  -2.6217   3.1278   3.9457   4.3507   4.9497   5.0928   5.5447
     5.6414   7.4815   7.7461   8.3907   8.6845   8.8797   9.1137  10.6990
    10.8099  10.9243  11.0013  11.0855  11.1682  11.2829  12.4488  12.6126
    13.9679  14.0472  14.7094  15.0848  15.1702  15.2595  15.3537  15.3895
    15.4496  16.1585  16.4621  16.7117  16.7860  17.2061  17.4311  17.5230
    17.6412  17.6897  17.7183  17.8820  17.9428  17.9988  18.0366  18.0755
    19.3939  19.4652  19.5506  19.7414  19.8288  19.8683  20.4902  20.6577
    21.0980  21.3382

     the Fermi energy is    17.8912 ev

!    total energy              =   -1402.15357650 Ry
     Harris-Foulkes estimate   =   -1402.15357681 Ry
     estimated scf accuracy    <       0.00000051 Ry

     convergence has been achieved in  11 iterations

     Forces acting on atoms (cartesian axes, Ry/au):

     atom    1 type  1   force =     0.01434610    0.00342559   -0.00098816
     atom    2 type  2   force =     0.12281455   -0.23436603    0.00863298
     atom    3 type  1   force =    -0.04084909   -0.01373421   -0.01934316
     atom    4 type  1   force =    -0.04005934   -0.01233931   -0.00578528
     atom    5 type  1   force =     0.00362101    0.00266680    0.00638707
     atom    6 type  2   force =     0.03534971    0.14338404   -0.22431173
     atom    7 type  2   force =    -0.09852523    0.08099524    0.21738642
     atom    8 type  2   force =     0.12067669   -0.24443014   -0.00233220
     atom    9 type  2   force =    -0.11906772    0.08885384    0.20060103
     atom   10 type  2   force =    -0.00349375    0.14892974   -0.25290513
     atom   11 type  2   force =    -0.12236770    0.25248081    0.01924917
     atom   12 type  2   force =     0.01184631   -0.13294910    0.22727749
     atom   13 type  2   force =     0.11751695   -0.05340953   -0.22132759
     atom   14 type  2   force =    -0.11817560    0.22732617    0.02144219
     atom   15 type  2   force =     0.12263843   -0.08743423   -0.20110596
     atom   16 type  2   force =    -0.00627130   -0.16939970    0.22712287

     Total force =     0.925515     Total SCF correction =     0.002287

     Entering Dynamics:    iteration =     5
                           time      =   0.0050 pico-seconds


     Andersen thermostat:    2 collisions

ATOMIC_POSITIONS (angstrom)
Fe       1.226555871   0.636577148   0.432148400
O        3.774610707   3.078797529  -0.035863762
Fe       4.598496553   2.388685692   1.645531543
Fe      10.398658604   5.455287386   3.724875926
Fe       7.033392998   3.680955012   2.518654046
O        3.102308852   2.470072738   2.913268586
O        4.726621426   0.484357591   1.259832663
O        6.522895669   1.689714522   2.060576181
O        5.115627828   3.532675303   3.337385541
O        5.770416874   3.925470063   0.788216037
O        4.680700549   1.375295796  -0.018087161
O        3.075714466   3.618770403   1.265965526
O        3.778026497   1.148451922   2.874735715
O        5.116799525   4.383673058   2.089654519
O        6.491266702   2.561697899   0.857096132
O        5.831321530   2.158836453   3.390187355


     kinetic energy (Ekin) =     0.28943941 Ry
     temperature           =  2031.05841963 K 
     Ekin + Etot (const)   = -1401.86413708 Ry
     Message from routine dynamics:
     Total linear momentum <> 0

     Linear momentum :   -0.0823894623   -0.2175544675    1.8747461753

     Writing output data file x0.save

     second order wave-functions extrapolation
     second order charge density extrapolation

     Check: negative/imaginary core charge=   -0.000052    0.000000

     total cpu time spent up to now is      205.3 secs

     Self-consistent Calculation

     iteration #  1     ecut=   100.00 Ry     beta= 0.30
     Davidson diagonalization with overlap
     ethr =  1.00E-06,  avg # of iterations =  5.0

     total cpu time spent up to now is      208.9 secs

     total energy              =   -1402.25884119 Ry
     Harris-Foulkes estimate   =   -1402.26020192 Ry
     estimated scf accuracy    <       0.00312139 Ry

     iteration #  2     ecut=   100.00 Ry     beta= 0.30
     Davidson diagonalization with overlap
     ethr =  2.30E-06,  avg # of iterations =  3.0

     total cpu time spent up to now is      211.2 secs

     total energy              =   -1402.25107866 Ry
     Harris-Foulkes estimate   =   -1402.26889094 Ry
     estimated scf accuracy    <       0.55881419 Ry

     iteration #  3     ecut=   100.00 Ry     beta= 0.30
     Davidson diagonalization with overlap
     ethr =  2.30E-06,  avg # of iterations =  2.0

     total cpu time spent up to now is      213.4 secs

     total energy              =   -1402.25924174 Ry
     Harris-Foulkes estimate   =   -1402.26056129 Ry
     estimated scf accuracy    <       0.01815818 Ry

     iteration #  4     ecut=   100.00 Ry     beta= 0.30
     Davidson diagonalization with overlap
     ethr =  2.30E-06,  avg # of iterations =  1.0

     total cpu time spent up to now is      215.6 secs

     total energy              =   -1402.25978470 Ry
     Harris-Foulkes estimate   =   -1402.26011161 Ry
     estimated scf accuracy    <       0.00402124 Ry

     iteration #  5     ecut=   100.00 Ry     beta= 0.30
     Davidson diagonalization with overlap
     ethr =  2.30E-06,  avg # of iterations =  1.0

     total cpu time spent up to now is      217.7 secs

     total energy              =   -1402.25966430 Ry
     Harris-Foulkes estimate   =   -1402.26032530 Ry
     estimated scf accuracy    <       0.02097195 Ry

     iteration #  6     ecut=   100.00 Ry     beta= 0.30
     Davidson diagonalization with overlap
     ethr =  2.30E-06,  avg # of iterations =  1.0

     total cpu time spent up to now is      219.8 secs

     total energy              =   -1402.25996693 Ry
     Harris-Foulkes estimate   =   -1402.26001338 Ry
     estimated scf accuracy    <       0.00027323 Ry

     iteration #  7     ecut=   100.00 Ry     beta= 0.30
     Davidson diagonalization with overlap
     ethr =  2.01E-07,  avg # of iterations =  2.0

     total cpu time spent up to now is      222.1 secs

     total energy              =   -1402.25979863 Ry
     Harris-Foulkes estimate   =   -1402.26020397 Ry
     estimated scf accuracy    <       0.01430910 Ry

     iteration #  8     ecut=   100.00 Ry     beta= 0.30
     Davidson diagonalization with overlap
     ethr =  2.01E-07,  avg # of iterations =  2.0

     total cpu time spent up to now is      224.2 secs

     total energy              =   -1402.25999751 Ry
     Harris-Foulkes estimate   =   -1402.26000732 Ry
     estimated scf accuracy    <       0.00005915 Ry

     iteration #  9     ecut=   100.00 Ry     beta= 0.30
     Davidson diagonalization with overlap
     ethr =  4.35E-08,  avg # of iterations =  1.0

     total cpu time spent up to now is      226.4 secs

     total energy              =   -1402.26000314 Ry
     Harris-Foulkes estimate   =   -1402.26000365 Ry
     estimated scf accuracy    <       0.00000781 Ry

     iteration # 10     ecut=   100.00 Ry     beta= 0.30
     Davidson diagonalization with overlap
     ethr =  5.74E-09,  avg # of iterations =  4.0

     total cpu time spent up to now is      228.8 secs

     total energy              =   -1402.26000456 Ry
     Harris-Foulkes estimate   =   -1402.26000484 Ry
     estimated scf accuracy    <       0.00000177 Ry

     iteration # 11     ecut=   100.00 Ry     beta= 0.30
     Davidson diagonalization with overlap
     ethr =  1.30E-09,  avg # of iterations =  4.0

     total cpu time spent up to now is      231.3 secs

     End of self-consistent calculation

          k = 0.0000 0.0000 0.0000 (  5726 PWs)   bands (ev):

   -69.6482 -69.6129 -69.5580 -69.5495 -36.1226 -36.0751 -36.0541 -36.0172
   -35.9849 -35.9282 -35.8965 -35.8841 -35.3652 -35.3507 -35.2522 -35.2385
    -9.9128  -8.2911  -6.7711  -6.5695  -5.9927  -5.7580  -3.6227  -3.3544
    -2.8028  -2.5452   3.0308   4.0772   4.2828   5.1081   5.1557   5.6502
     5.7526   7.3385   7.6426   8.4254   8.7757   9.0206   9.3045  10.6957
    10.8527  11.0320  11.1642  11.2887  11.3627  11.4899  12.5893  12.7816
    13.9643  14.0807  14.6292  14.8510  15.0289  15.0976  15.1603  15.2171
    15.3100  16.0403  16.2068  16.5246  16.6621  17.1642  17.3101  17.4278
    17.5396  17.6099  17.6548  17.8502  17.9121  17.9446  17.9829  17.9919
    19.2460  19.3364  19.4077  19.6234  19.7144  19.7621  20.4121  20.5777
    20.9383  21.2142

     the Fermi energy is    17.8466 ev

!    total energy              =   -1402.26000484 Ry
     Harris-Foulkes estimate   =   -1402.26000508 Ry
     estimated scf accuracy    <       0.00000054 Ry

     convergence has been achieved in  11 iterations

     Forces acting on atoms (cartesian axes, Ry/au):

     atom    1 type  1   force =    -0.00118103   -0.00974866   -0.00882190
     atom    2 type  2   force =     0.10549274   -0.19784041    0.01391348
     atom    3 type  1   force =    -0.02436338   -0.00519539   -0.01333930
     atom    4 type  1   force =    -0.02939152   -0.00704461    0.00318041
     atom    5 type  1   force =    -0.01625450   -0.00661437   -0.00100887
     atom    6 type  2   force =     0.03999622    0.11942640   -0.19377264
     atom    7 type  2   force =    -0.08133063    0.06844595    0.18638961
     atom    8 type  2   force =     0.10655438   -0.21172508    0.00460014
     atom    9 type  2   force =    -0.10481473    0.08094288    0.16786569
     atom   10 type  2   force =     0.00012325    0.12365733   -0.22474153
     atom   11 type  2   force =    -0.11460440    0.22621984    0.01967798
     atom   12 type  2   force =     0.01541579   -0.11485852    0.19669310
     atom   13 type  2   force =     0.10586058   -0.03659895   -0.19687820
     atom   14 type  2   force =    -0.10355273    0.18997373    0.02643630
     atom   15 type  2   force =     0.10768572   -0.07062391   -0.16805096
     atom   16 type  2   force =    -0.00563575   -0.14841624    0.18785669

     Total force =     0.798528     Total SCF correction =     0.002528

     Entering Dynamics:    iteration =     6
                           time      =   0.0060 pico-seconds


     Andersen thermostat:    1 collisions

ATOMIC_POSITIONS (angstrom)
Fe       1.227300929   0.637781616   0.433165642
O        3.779835857   3.052097867  -0.042849950
Fe       4.599503143   2.386398182   1.645597357
Fe      10.400479339   5.457126939   3.724404262
Fe       7.034221875   3.681952684   2.519034772
O        3.106575126   2.475177702   2.911816078
O        4.721466889   0.496326302   1.276789665
O        6.534730271   1.669179191   2.056501444
O        5.111983040   3.531545790   3.339277702
O        5.762295146   3.943997694   0.760804754
O        4.660867134   1.402509352  -0.021138712
O        3.072346399   3.610201176   1.286882176
O        3.783816853   1.146778911   2.849884324
O        5.108264111   4.395688762   2.092601882
O        6.493508459   2.556998317   0.848999390
O        5.835259017   2.141189346   3.419935650


     kinetic energy (Ekin) =     0.37200373 Ry
     temperature           =  2610.42996358 K 
     Ekin + Etot (const)   = -1401.88800110 Ry
     Message from routine dynamics:
     Total linear momentum <> 0

     Linear momentum :    0.2932127342   -0.6325230909   -1.0538639517

     Writing output data file x0.save

     second order wave-functions extrapolation
     second order charge density extrapolation

     Check: negative/imaginary core charge=   -0.000052    0.000000

     total cpu time spent up to now is      239.8 secs

     Self-consistent Calculation

     iteration #  1     ecut=   100.00 Ry     beta= 0.30
     Davidson diagonalization with overlap
     ethr =  1.00E-06,  avg # of iterations =  5.0

     total cpu time spent up to now is      243.4 secs

     total energy              =   -1402.35715121 Ry
     Harris-Foulkes estimate   =   -1402.36028645 Ry
     estimated scf accuracy    <       0.00667549 Ry

     iteration #  2     ecut=   100.00 Ry     beta= 0.30
     Davidson diagonalization with overlap
     ethr =  4.91E-06,  avg # of iterations =  3.0

     total cpu time spent up to now is      245.7 secs

     total energy              =   -1402.33786859 Ry
     Harris-Foulkes estimate   =   -1402.38372950 Ry
     estimated scf accuracy    <       1.28073726 Ry

     iteration #  3     ecut=   100.00 Ry     beta= 0.30
     Davidson diagonalization with overlap
     ethr =  4.91E-06,  avg # of iterations =  2.0

     total cpu time spent up to now is      247.9 secs

     total energy              =   -1402.35954836 Ry
     Harris-Foulkes estimate   =   -1402.36031817 Ry
     estimated scf accuracy    <       0.00743190 Ry

     iteration #  4     ecut=   100.00 Ry     beta= 0.30
     Davidson diagonalization with overlap
     ethr =  4.91E-06,  avg # of iterations =  1.0

     total cpu time spent up to now is      250.1 secs

     total energy              =   -1402.35967844 Ry
     Harris-Foulkes estimate   =   -1402.36026220 Ry
     estimated scf accuracy    <       0.01326997 Ry

     iteration #  5     ecut=   100.00 Ry     beta= 0.30
     Davidson diagonalization with overlap
     ethr =  4.91E-06,  avg # of iterations =  1.0

     total cpu time spent up to now is      252.2 secs

     total energy              =   -1402.35988920 Ry
     Harris-Foulkes estimate   =   -1402.36021117 Ry
     estimated scf accuracy    <       0.00901483 Ry

     iteration #  6     ecut=   100.00 Ry     beta= 0.30
     Davidson diagonalization with overlap
     ethr =  4.91E-06,  avg # of iterations =  1.0

     total cpu time spent up to now is      254.4 secs

     total energy              =   -1402.35996022 Ry
     Harris-Foulkes estimate   =   -1402.36010633 Ry
     estimated scf accuracy    <       0.00360522 Ry

     iteration #  7     ecut=   100.00 Ry     beta= 0.30
     Davidson diagonalization with overlap
     ethr =  2.65E-06,  avg # of iterations =  1.0

     total cpu time spent up to now is      256.5 secs

     total energy              =   -1402.36003795 Ry
     Harris-Foulkes estimate   =   -1402.36005926 Ry
     estimated scf accuracy    <       0.00048831 Ry

     iteration #  8     ecut=   100.00 Ry     beta= 0.30
     Davidson diagonalization with overlap
     ethr =  3.59E-07,  avg # of iterations =  1.0

     total cpu time spent up to now is      258.6 secs

     total energy              =   -1402.36004633 Ry
     Harris-Foulkes estimate   =   -1402.36005190 Ry
     estimated scf accuracy    <       0.00003732 Ry

     iteration #  9     ecut=   100.00 Ry     beta= 0.30
     Davidson diagonalization with overlap
     ethr =  2.74E-08,  avg # of iterations =  2.0

     total cpu time spent up to now is      260.8 secs

     total energy              =   -1402.36004999 Ry
     Harris-Foulkes estimate   =   -1402.36005069 Ry
     estimated scf accuracy    <       0.00001247 Ry

     iteration # 10     ecut=   100.00 Ry     beta= 0.30
     Davidson diagonalization with overlap
     ethr =  9.17E-09,  avg # of iterations =  4.0

     total cpu time spent up to now is      263.1 secs

     End of self-consistent calculation

          k = 0.0000 0.0000 0.0000 (  5726 PWs)   bands (ev):

   -69.7930 -69.7535 -69.6980 -69.6739 -36.2718 -36.2242 -36.1710 -36.1630
   -36.1098 -36.0455 -36.0070 -35.9903 -35.5095 -35.4942 -35.4121 -35.3620
    -9.6910  -8.0203  -6.5221  -6.3003  -5.6330  -5.3660  -3.7796  -3.4579
    -2.7883  -2.4768   2.9361   4.1020   4.3225   5.1318   5.3443   5.7546
     5.8538   7.1683   7.5524   8.4495   8.8920   9.1667   9.5215  10.6461
    10.8707  11.1190  11.3483  11.4829  11.5553  11.7363  12.7683  12.9988
    13.9431  14.0979  14.4861  14.5881  14.8641  14.8753  14.9959  15.0831
    15.1893  15.8881  15.9553  16.3556  16.5331  17.1174  17.1945  17.3384
    17.4334  17.5363  17.5980  17.8024  17.8481  17.8817  17.9422  17.9849
    19.0884  19.2015  19.2615  19.5119  19.6010  19.6622  20.3647  20.5312
    20.7748  21.1039

     the Fermi energy is    17.7945 ev

!    total energy              =   -1402.36005086 Ry
     Harris-Foulkes estimate   =   -1402.36005128 Ry
     estimated scf accuracy    <       0.00000091 Ry

     convergence has been achieved in  10 iterations

     Forces acting on atoms (cartesian axes, Ry/au):

     atom    1 type  1   force =    -0.02067959   -0.02299002   -0.01258124
     atom    2 type  2   force =     0.08240827   -0.15466690    0.01898527
     atom    3 type  1   force =    -0.00633470    0.00112782   -0.01302177
     atom    4 type  1   force =    -0.01455642   -0.00321978    0.01149849
     atom    5 type  1   force =    -0.03496253   -0.01465093   -0.01133259
     atom    6 type  2   force =     0.04166153    0.09225818   -0.15602033
     atom    7 type  2   force =    -0.06319578    0.05640333    0.15166102
     atom    8 type  2   force =     0.09358367   -0.17542299    0.01304091
     atom    9 type  2   force =    -0.09066736    0.07394748    0.13337616
     atom   10 type  2   force =     0.00438458    0.09219062   -0.19079298
     atom   11 type  2   force =    -0.10377156    0.19101562    0.01972211
     atom   12 type  2   force =     0.02001726   -0.09393580    0.16072367
     atom   13 type  2   force =     0.09139268   -0.01789347   -0.16459200
     atom   14 type  2   force =    -0.09026080    0.15789808    0.03116176
     atom   15 type  2   force =     0.09375138   -0.05366976   -0.13979281
     atom   16 type  2   force =    -0.00277062   -0.12839147    0.14796435

     Total force =     0.661283     Total SCF correction =     0.003566

     Entering Dynamics:    iteration =     7
                           time      =   0.0070 pico-seconds


     Andersen thermostat:    2 collisions

ATOMIC_POSITIONS (angstrom)
Fe       1.228218638   0.638628158   0.434693553
O        3.786603207   3.022744383  -0.048975230
Fe       4.600746102   2.383859878   1.646171883
Fe      10.402499923   5.458696387   3.724550227
Fe       7.035159957   3.682629473   2.519931714
O        3.104027447   2.474665038   2.915739937
O        4.715597049   0.508913710   1.296664634
O        6.548280341   1.645668228   2.053195452
O        5.107197017   3.531306985   3.343804335
O        5.754505907   3.963698882   0.731001892
O        4.639689311   1.432428688  -0.023317929
O        3.070410495   3.613353077   1.288919763
O        3.791288706   1.144572670   2.823047585
O        5.098593766   4.409896777   2.096598943
O        6.497468284   2.551210813   0.839301798
O        5.839418056   2.121295802   3.452544599


     kinetic energy (Ekin) =     0.43417739 Ry
     temperature           =  3046.71583209 K 
     Ekin + Etot (const)   = -1401.92587347 Ry
     Message from routine dynamics:
     Total linear momentum <> 0

     Linear momentum :   -0.4461097204    0.4314291125   -0.9555277273

     Writing output data file x0.save

     second order wave-functions extrapolation
     second order charge density extrapolation

     Check: negative/imaginary core charge=   -0.000052    0.000000

     total cpu time spent up to now is      271.3 secs

     Self-consistent Calculation

     iteration #  1     ecut=   100.00 Ry     beta= 0.30
     Davidson diagonalization with overlap
     ethr =  1.00E-06,  avg # of iterations =  5.0

     total cpu time spent up to now is      274.9 secs

     total energy              =   -1402.43808878 Ry
     Harris-Foulkes estimate   =   -1402.44014744 Ry
     estimated scf accuracy    <       0.00479487 Ry

     iteration #  2     ecut=   100.00 Ry     beta= 0.30
     Davidson diagonalization with overlap
     ethr =  3.53E-06,  avg # of iterations =  2.0

     total cpu time spent up to now is      277.1 secs

     total energy              =   -1402.43044101 Ry
     Harris-Foulkes estimate   =   -1402.44783133 Ry
     estimated scf accuracy    <       0.38959605 Ry

     iteration #  3     ecut=   100.00 Ry     beta= 0.30
     Davidson diagonalization with overlap
     ethr =  3.53E-06,  avg # of iterations =  2.0

     total cpu time spent up to now is      279.4 secs

     total energy              =   -1402.43861974 Ry
     Harris-Foulkes estimate   =   -1402.44061878 Ry
     estimated scf accuracy    <       0.02897041 Ry

     iteration #  4     ecut=   100.00 Ry     beta= 0.30
     Davidson diagonalization with overlap
     ethr =  3.53E-06,  avg # of iterations =  1.0

     total cpu time spent up to now is      281.5 secs

     total energy              =   -1402.43928371 Ry
     Harris-Foulkes estimate   =   -1402.44004087 Ry
     estimated scf accuracy    <       0.01289294 Ry

     iteration #  5     ecut=   100.00 Ry     beta= 0.30
     Davidson diagonalization with overlap
     ethr =  3.53E-06,  avg # of iterations =  1.0

     total cpu time spent up to now is      283.7 secs

     total energy              =   -1402.43949875 Ry
     Harris-Foulkes estimate   =   -1402.44003305 Ry
     estimated scf accuracy    <       0.01229184 Ry

     iteration #  6     ecut=   100.00 Ry     beta= 0.30
     Davidson diagonalization with overlap
     ethr =  3.53E-06,  avg # of iterations =  1.0

     total cpu time spent up to now is      285.8 secs

     total energy              =   -1402.43963907 Ry
     Harris-Foulkes estimate   =   -1402.43984692 Ry
     estimated scf accuracy    <       0.00473525 Ry

     iteration #  7     ecut=   100.00 Ry     beta= 0.30
     Davidson diagonalization with overlap
     ethr =  3.48E-06,  avg # of iterations =  1.0

     total cpu time spent up to now is      288.0 secs

     total energy              =   -1402.43974114 Ry
     Harris-Foulkes estimate   =   -1402.43980144 Ry
     estimated scf accuracy    <       0.00146142 Ry

     iteration #  8     ecut=   100.00 Ry     beta= 0.30
     Davidson diagonalization with overlap
     ethr =  1.07E-06,  avg # of iterations =  1.0

     total cpu time spent up to now is      290.1 secs

     total energy              =   -1402.43976559 Ry
     Harris-Foulkes estimate   =   -1402.43977698 Ry
     estimated scf accuracy    <       0.00006302 Ry

     iteration #  9     ecut=   100.00 Ry     beta= 0.30
     Davidson diagonalization with overlap
     ethr =  4.63E-08,  avg # of iterations =  1.0

     total cpu time spent up to now is      292.3 secs

     total energy              =   -1402.43977240 Ry
     Harris-Foulkes estimate   =   -1402.43977351 Ry
     estimated scf accuracy    <       0.00001032 Ry

     iteration # 10     ecut=   100.00 Ry     beta= 0.30
     Davidson diagonalization with overlap
     ethr =  7.59E-09,  avg # of iterations =  4.0

     total cpu time spent up to now is      294.9 secs

     total energy              =   -1402.43977537 Ry
     Harris-Foulkes estimate   =   -1402.43977580 Ry
     estimated scf accuracy    <       0.00000227 Ry

     iteration # 11     ecut=   100.00 Ry     beta= 0.30
     Davidson diagonalization with overlap
     ethr =  1.67E-09,  avg # of iterations =  2.0

     total cpu time spent up to now is      297.0 secs

     End of self-consistent calculation

          k = 0.0000 0.0000 0.0000 (  5726 PWs)   bands (ev):

   -69.9068 -69.8892 -69.8194 -69.7898 -36.3932 -36.3647 -36.2917 -36.2821
   -36.2047 -36.1612 -36.1016 -36.0866 -35.6412 -35.6200 -35.5401 -35.4907
    -9.5013  -7.7804  -6.2979  -6.0503  -5.2578  -4.9903  -4.0061  -3.6663
    -2.7586  -2.4373   2.8592   4.0405   4.4445   5.1399   5.5160   5.8431
     5.9356   7.0139   7.4114   8.5293   9.0061   9.3211   9.7191  10.5512
    10.8527  11.1885  11.5089  11.6683  11.7254  11.9637  12.9895  13.2173
    13.9036  14.0905  14.1816  14.4748  14.5655  14.7326  14.8475  14.9783
    15.0959  15.6816  15.8385  16.2076  16.4193  17.0778  17.1036  17.2574
    17.3401  17.4647  17.5583  17.7299  17.8071  17.8239  17.9542  17.9804
    18.9350  19.0668  19.1460  19.4030  19.5093  19.5825  20.3730  20.5401
    20.6644  21.0152

     the Fermi energy is    17.7432 ev

!    total energy              =   -1402.43977548 Ry
     Harris-Foulkes estimate   =   -1402.43977565 Ry
     estimated scf accuracy    <       0.00000055 Ry

     convergence has been achieved in  11 iterations

     Forces acting on atoms (cartesian axes, Ry/au):

     atom    1 type  1   force =    -0.03902305   -0.02939326   -0.01918359
     atom    2 type  2   force =     0.06344973   -0.11470594    0.02326272
     atom    3 type  1   force =     0.01220383    0.00625406   -0.00668116
     atom    4 type  1   force =     0.00069633   -0.00147443    0.01829266
     atom    5 type  1   force =    -0.05659923   -0.02344585   -0.02668407
     atom    6 type  2   force =     0.04006366    0.06920095   -0.12430546
     atom    7 type  2   force =    -0.04975418    0.05062563    0.12343090
     atom    8 type  2   force =     0.07699760   -0.13130862    0.02321489
     atom    9 type  2   force =    -0.07566814    0.06319208    0.09936175
     atom   10 type  2   force =     0.00714408    0.05510058   -0.14621606
     atom   11 type  2   force =    -0.08767730    0.15671090    0.01754975
     atom   12 type  2   force =     0.02601190   -0.07721807    0.13102289
     atom   13 type  2   force =     0.07937461   -0.00036099   -0.13738803
     atom   14 type  2   force =    -0.07408110    0.11498326    0.03394622
     atom   15 type  2   force =     0.07646295   -0.03617858   -0.11016536
     atom   16 type  2   force =     0.00039832   -0.10198171    0.10054195

     Total force =     0.525927     Total SCF correction =     0.002406

     Entering Dynamics:    iteration =     8
                           time      =   0.0080 pico-seconds


     Andersen thermostat:    1 collisions

ATOMIC_POSITIONS (angstrom)
Fe       1.229073515   0.638483728   0.437291650
O        3.794464815   2.990752043  -0.053584435
Fe       4.602153778   2.380488945   1.647872131
Fe      10.404634107   5.459398876   3.725932848
Fe       7.035957134   3.682341707   2.521865526
O        3.102211438   2.474364885   2.918891914
O        4.709066306   0.521425628   1.319608725
O        6.563134720   1.619260993   2.051404794
O        5.101348312   3.531187526   3.351026913
O        5.746937939   3.983393963   0.700087438
O        4.617262611   1.463917324  -0.024069648
O        3.068988398   3.614447350   1.294144182
O        3.800101723   1.141500422   2.795236127
O        5.087885344   4.425027131   2.102277720
O        6.502724128   2.544001973   0.829051558
O        5.840824819   2.121298400   3.457871582


     kinetic energy (Ekin) =     0.41641464 Ry
     temperature           =  2922.07077277 K 
     Ekin + Etot (const)   = -1402.02336085 Ry
     Message from routine dynamics:
     Total linear momentum <> 0

     Linear momentum :   -0.1863770567    1.4511322618   -1.9486533336

     Writing output data file x0.save

     second order wave-functions extrapolation
     second order charge density extrapolation

     Check: negative/imaginary core charge=   -0.000052    0.000000

     total cpu time spent up to now is      305.3 secs

     Self-consistent Calculation

     iteration #  1     ecut=   100.00 Ry     beta= 0.30
     Davidson diagonalization with overlap
     ethr =  1.00E-06,  avg # of iterations =  5.0

     total cpu time spent up to now is      309.0 secs

     total energy              =   -1402.49629820 Ry
     Harris-Foulkes estimate   =   -1402.49720131 Ry
     estimated scf accuracy    <       0.00236702 Ry

     iteration #  2     ecut=   100.00 Ry     beta= 0.30
     Davidson diagonalization with overlap
     ethr =  1.74E-06,  avg # of iterations =  2.0

     total cpu time spent up to now is      311.2 secs

     total energy              =   -1402.49503574 Ry
     Harris-Foulkes estimate   =   -1402.49790452 Ry
     estimated scf accuracy    <       0.04184101 Ry

     iteration #  3     ecut=   100.00 Ry     beta= 0.30
     Davidson diagonalization with overlap
     ethr =  1.74E-06,  avg # of iterations =  2.0

     total cpu time spent up to now is      313.4 secs

     total energy              =   -1402.49615391 Ry
     Harris-Foulkes estimate   =   -1402.49744098 Ry
     estimated scf accuracy    <       0.02364399 Ry

     iteration #  4     ecut=   100.00 Ry     beta= 0.30
     Davidson diagonalization with overlap
     ethr =  1.74E-06,  avg # of iterations =  1.0

     total cpu time spent up to now is      315.5 secs

     total energy              =   -1402.49657408 Ry
     Harris-Foulkes estimate   =   -1402.49705003 Ry
     estimated scf accuracy    <       0.00632705 Ry

     iteration #  5     ecut=   100.00 Ry     beta= 0.30
     Davidson diagonalization with overlap
     ethr =  1.74E-06,  avg # of iterations =  1.0

     total cpu time spent up to now is      317.7 secs

     total energy              =   -1402.49663191 Ry
     Harris-Foulkes estimate   =   -1402.49708156 Ry
     estimated scf accuracy    <       0.00988455 Ry

     iteration #  6     ecut=   100.00 Ry     beta= 0.30
     Davidson diagonalization with overlap
     ethr =  1.74E-06,  avg # of iterations =  1.0

     total cpu time spent up to now is      319.8 secs

     total energy              =   -1402.49682064 Ry
     Harris-Foulkes estimate   =   -1402.49688139 Ry
     estimated scf accuracy    <       0.00035813 Ry

     iteration #  7     ecut=   100.00 Ry     beta= 0.30
     Davidson diagonalization with overlap
     ethr =  2.63E-07,  avg # of iterations =  2.0

     total cpu time spent up to now is      322.0 secs

     total energy              =   -1402.49664492 Ry
     Harris-Foulkes estimate   =   -1402.49708955 Ry
     estimated scf accuracy    <       0.01338884 Ry

     iteration #  8     ecut=   100.00 Ry     beta= 0.30
     Davidson diagonalization with overlap
     ethr =  2.63E-07,  avg # of iterations =  2.0

     total cpu time spent up to now is      324.2 secs

     total energy              =   -1402.49686408 Ry
     Harris-Foulkes estimate   =   -1402.49687136 Ry
     estimated scf accuracy    <       0.00004117 Ry

     iteration #  9     ecut=   100.00 Ry     beta= 0.30
     Davidson diagonalization with overlap
     ethr =  3.03E-08,  avg # of iterations =  3.0

     total cpu time spent up to now is      326.4 secs

     total energy              =   -1402.49686975 Ry
     Harris-Foulkes estimate   =   -1402.49687116 Ry
     estimated scf accuracy    <       0.00000961 Ry

     iteration # 10     ecut=   100.00 Ry     beta= 0.30
     Davidson diagonalization with overlap
     ethr =  7.06E-09,  avg # of iterations =  4.0

     total cpu time spent up to now is      329.0 secs

     total energy              =   -1402.49687218 Ry
     Harris-Foulkes estimate   =   -1402.49687260 Ry
     estimated scf accuracy    <       0.00000252 Ry

     iteration # 11     ecut=   100.00 Ry     beta= 0.30
     Davidson diagonalization with overlap
     ethr =  1.85E-09,  avg # of iterations =  2.0

     total cpu time spent up to now is      331.2 secs

     End of self-consistent calculation

          k = 0.0000 0.0000 0.0000 (  5726 PWs)   bands (ev):

   -70.0077 -69.9985 -69.9365 -69.8709 -36.5006 -36.4681 -36.4074 -36.3516
   -36.2866 -36.2612 -36.2022 -36.1688 -35.7581 -35.7303 -35.6653 -35.5723
    -9.3465  -7.5775  -6.0648  -5.7884  -4.9727  -4.6472  -4.2065  -3.8972
    -2.7778  -2.4613   2.7926   3.9810   4.5567   5.1559   5.6589   5.9067
     6.0074   6.8836   7.3178   8.5831   9.0952   9.4704   9.9147  10.4319
    10.8192  11.2387  11.6301  11.8257  11.8780  12.1802  13.1989  13.3836
    13.8494  13.8870  14.0555  14.2825  14.3913  14.5927  14.7739  14.8862
    15.0235  15.5005  15.7444  16.1042  16.3211  17.0296  17.0532  17.1861
    17.2730  17.4058  17.5335  17.6562  17.7542  17.8211  17.9540  17.9929
    18.8041  18.9502  19.0636  19.3198  19.4379  19.5191  20.4254  20.5368
    20.6028  20.9444

     the Fermi energy is    17.6972 ev

!    total energy              =   -1402.49687236 Ry
     Harris-Foulkes estimate   =   -1402.49687256 Ry
     estimated scf accuracy    <       0.00000064 Ry

     convergence has been achieved in  11 iterations

     Forces acting on atoms (cartesian axes, Ry/au):

     atom    1 type  1   force =    -0.05687328   -0.03794135   -0.02829009
     atom    2 type  2   force =     0.03930652   -0.06669471    0.02853019
     atom    3 type  1   force =     0.02933811    0.01509362   -0.00161927
     atom    4 type  1   force =     0.01582575    0.00235170    0.02825304
     atom    5 type  1   force =    -0.07265450   -0.03089057   -0.05265326
     atom    6 type  2   force =     0.03472025    0.04524272   -0.08980708
     atom    7 type  2   force =    -0.03173510    0.04248689    0.09130278
     atom    8 type  2   force =     0.06644832   -0.09646707    0.02910906
     atom    9 type  2   force =    -0.06741417    0.06293227    0.07499405
     atom   10 type  2   force =     0.00998249    0.02260698   -0.10910704
     atom   11 type  2   force =    -0.06264356    0.10863041    0.01820846
     atom   12 type  2   force =     0.03101150   -0.06056700    0.10171679
     atom   13 type  2   force =     0.05818656    0.01697383   -0.09960110
     atom   14 type  2   force =    -0.05460799    0.07717718    0.02835844
     atom   15 type  2   force =     0.05659832   -0.01450050   -0.08915412
     atom   16 type  2   force =     0.00451079   -0.08643439    0.06975914

     Total force =     0.406449     Total SCF correction =     0.002616

     Entering Dynamics:    iteration =     9
                           time      =   0.0090 pico-seconds


     Andersen thermostat:    1 collisions

[...]
     atom   10 type  2   force =     0.01157093   -0.00153741   -0.07396898
     atom   11 type  2   force =    -0.01223716   -0.01327210   -0.03261632
     atom   12 type  2   force =    -0.06451589   -0.13777134    0.01215681
     atom   13 type  2   force =    -0.01642039   -0.00576453   -0.02304497
     atom   14 type  2   force =     0.05003581    0.01351164   -0.01992153
     atom   15 type  2   force =     0.04100447    0.00007106    0.01502347
     atom   16 type  2   force =     0.00882728   -0.02755082   -0.00269863

     Total force =     0.404986     Total SCF correction =     0.003265

     Entering Dynamics:    iteration =    98
                           time      =   0.0980 pico-seconds


     Andersen thermostat:    1 collisions

ATOMIC_POSITIONS (angstrom)
Fe       1.208288432   0.470756015   0.576169706
O        3.883828669   3.393907848  -0.739239558
Fe       4.834978010   2.526072941   1.712510892
Fe      10.461342039   5.373606501   3.772244370
Fe       7.022903917   3.530620425   2.307056718
O        2.780825617   2.483000554   3.212837476
O        4.655601413   0.641563461   1.227157638
O        5.906988921   1.193154946   2.508779118
O        4.515584609   3.374488668   3.372169065
O        5.807958378   3.488511975   0.512699935
O        3.960657098   2.246129183   0.278160332
O        3.380495820   3.739040356   1.379753203
O        3.414744865   1.708269329   2.192234837
O        5.350044464   4.502406153   2.034720675
O        7.184152888   2.187190865   1.057666669
O        6.201584356   2.379232140   3.582773997


     kinetic energy (Ekin) =     0.11962636 Ry
     temperature           =   839.44384116 K 
     Ekin + Etot (const)   = -1403.57799779 Ry
     Message from routine dynamics:
     Total linear momentum <> 0

     Linear momentum :   -0.2961887113   -0.1253929123    0.2912650723

     Writing output data file x0.save

     second order wave-functions extrapolation
     second order charge density extrapolation

     Check: negative/imaginary core charge=   -0.000052    0.000000

     total cpu time spent up to now is     3187.5 secs

     Self-consistent Calculation

     iteration #  1     ecut=   100.00 Ry     beta= 0.30
     Davidson diagonalization with overlap
     ethr =  1.00E-06,  avg # of iterations =  4.0

     total cpu time spent up to now is     3190.7 secs

     total energy              =   -1403.70801416 Ry
     Harris-Foulkes estimate   =   -1403.70807664 Ry
     estimated scf accuracy    <       0.00017591 Ry

     iteration #  2     ecut=   100.00 Ry     beta= 0.30
     Davidson diagonalization with overlap
     ethr =  1.29E-07,  avg # of iterations =  2.0

     total cpu time spent up to now is     3192.9 secs

     total energy              =   -1403.70795651 Ry
     Harris-Foulkes estimate   =   -1403.70812414 Ry
     estimated scf accuracy    <       0.00155305 Ry

     iteration #  3     ecut=   100.00 Ry     beta= 0.30
     Davidson diagonalization with overlap
     ethr =  1.29E-07,  avg # of iterations =  2.0

     total cpu time spent up to now is     3195.2 secs

     total energy              =   -1403.70800179 Ry
     Harris-Foulkes estimate   =   -1403.70812250 Ry
     estimated scf accuracy    <       0.00216727 Ry

     iteration #  4     ecut=   100.00 Ry     beta= 0.30
     Davidson diagonalization with overlap
     ethr =  1.29E-07,  avg # of iterations =  1.0

     total cpu time spent up to now is     3197.3 secs

     total energy              =   -1403.70805313 Ry
     Harris-Foulkes estimate   =   -1403.70807053 Ry
     estimated scf accuracy    <       0.00023211 Ry

     iteration #  5     ecut=   100.00 Ry     beta= 0.30
     Davidson diagonalization with overlap
     ethr =  1.29E-07,  avg # of iterations =  1.0

     total cpu time spent up to now is     3199.5 secs

     total energy              =   -1403.70806168 Ry
     Harris-Foulkes estimate   =   -1403.70806760 Ry
     estimated scf accuracy    <       0.00009574 Ry

     iteration #  6     ecut=   100.00 Ry     beta= 0.30
     Davidson diagonalization with overlap
     ethr =  7.04E-08,  avg # of iterations =  1.0

     total cpu time spent up to now is     3201.7 secs

     total energy              =   -1403.70805914 Ry
     Harris-Foulkes estimate   =   -1403.70807101 Ry
     estimated scf accuracy    <       0.00016519 Ry

     iteration #  7     ecut=   100.00 Ry     beta= 0.30
     Davidson diagonalization with overlap
     ethr =  7.04E-08,  avg # of iterations =  1.0

     total cpu time spent up to now is     3203.8 secs

     total energy              =   -1403.70806397 Ry
     Harris-Foulkes estimate   =   -1403.70806928 Ry
     estimated scf accuracy    <       0.00007576 Ry

     iteration #  8     ecut=   100.00 Ry     beta= 0.30
     Davidson diagonalization with overlap
     ethr =  5.57E-08,  avg # of iterations =  1.0

     total cpu time spent up to now is     3206.0 secs

     total energy              =   -1403.70806718 Ry
     Harris-Foulkes estimate   =   -1403.70806780 Ry
     estimated scf accuracy    <       0.00000630 Ry

     iteration #  9     ecut=   100.00 Ry     beta= 0.30
     Davidson diagonalization with overlap
     ethr =  4.63E-09,  avg # of iterations =  1.0

     total cpu time spent up to now is     3208.1 secs

     End of self-consistent calculation

          k = 0.0000 0.0000 0.0000 (  5726 PWs)   bands (ev):

   -71.3001 -71.0649 -71.0034 -70.7569 -37.8075 -37.5293 -37.5059 -37.2851
   -37.2704 -37.2515 -37.1999 -37.0808 -36.8766 -36.7354 -36.6922 -36.6550
    -9.1272  -6.5685  -5.5655  -4.5399  -4.4063  -3.2341  -2.7879  -2.3165
    -1.8705  -1.3471  -0.8093  -0.3134   6.5657   6.6430   7.2116   7.6375
     7.9032   8.4768   8.5836   8.8347   9.0704   9.6647   9.9014  10.0776
    10.3343  10.6686  11.1013  11.4688  11.6219  11.7000  11.7434  12.0226
    12.6146  12.8299  12.9482  13.3048  13.4452  13.6401  13.8441  14.1244
    14.5156  14.7509  15.0372  15.0891  15.6710  15.9721  16.0909  16.4246
    16.6112  16.6676  16.8389  17.0067  17.0455  17.4194  17.4933  17.7187
    17.8036  17.9113  18.1304  18.5240  18.6424  18.9766  19.1073  19.2347
    19.7006  20.0441

     the Fermi energy is    17.0291 ev

!    total energy              =   -1403.70806740 Ry
     Harris-Foulkes estimate   =   -1403.70806783 Ry
     estimated scf accuracy    <       0.00000076 Ry

     convergence has been achieved in   9 iterations

     Forces acting on atoms (cartesian axes, Ry/au):

     atom    1 type  1   force =     0.09312308    0.19338181    0.03082420
     atom    2 type  2   force =    -0.01932460   -0.00991882    0.01858943
     atom    3 type  1   force =     0.09202758    0.05575475    0.06123599
     atom    4 type  1   force =    -0.05364605   -0.16201849   -0.03380541
     atom    5 type  1   force =    -0.04589907    0.03320941    0.02456040
     atom    6 type  2   force =    -0.00498701   -0.01380592    0.05211793
     atom    7 type  2   force =    -0.06380089    0.02061620   -0.06788547
     atom    8 type  2   force =    -0.01356641    0.05814369    0.04951012
     atom    9 type  2   force =    -0.00749704   -0.01162502   -0.01640823
     atom   10 type  2   force =     0.01402021   -0.00207083   -0.07809867
     atom   11 type  2   force =    -0.01077454   -0.01318992   -0.03331499
     atom   12 type  2   force =    -0.05910424   -0.12394818    0.01074371
     atom   13 type  2   force =    -0.00718784    0.00317774   -0.02219322
     atom   14 type  2   force =     0.04108859    0.01421277   -0.01206089
     atom   15 type  2   force =     0.03620912   -0.00372274    0.01715774
     atom   16 type  2   force =     0.00931911   -0.03819645   -0.00097262

     Total force =     0.384951     Total SCF correction =     0.003583

     Entering Dynamics:    iteration =    99
                           time      =   0.0990 pico-seconds


     Andersen thermostat:    1 collisions

ATOMIC_POSITIONS (angstrom)
Fe       1.212063207   0.476254564   0.577397676
O        3.882637377   3.392182298  -0.733356503
Fe       4.838397864   2.526925928   1.714432655
Fe      10.460778515   5.368998963   3.771078701
Fe       7.020872868   3.533048482   2.307479913
O        2.778971934   2.477800530   3.214780388
O        4.652058542   0.645870508   1.225230054
O        5.904993485   1.191101630   2.511494041
O        4.512719476   3.377088213   3.366334877
O        5.806715055   3.481790026   0.511569831
O        3.953923495   2.247246766   0.280812071
O        3.380694876   3.728860441   1.379853122
O        3.409374371   1.703247772   2.191715459
O        5.357153357   4.506428302   2.023436265
O        7.184402506   2.192167059   1.058142613
O        6.202766417   2.378549637   3.581298781


     kinetic energy (Ekin) =     0.05572072 Ry
     temperature           =   391.00421836 K 
     Ekin + Etot (const)   = -1403.65234668 Ry
     Message from routine dynamics:
     Total linear momentum <> 0

     Linear momentum :    1.8726502321    0.6095268536   -0.7683544978

     Writing output data file x0.save

     second order wave-functions extrapolation
     second order charge density extrapolation

     Check: negative/imaginary core charge=   -0.000052    0.000000

     total cpu time spent up to now is     3216.5 secs

     Self-consistent Calculation

     iteration #  1     ecut=   100.00 Ry     beta= 0.30
     Davidson diagonalization with overlap
     ethr =  1.00E-06,  avg # of iterations =  4.0

     total cpu time spent up to now is     3220.1 secs

     total energy              =   -1403.71785425 Ry
     Harris-Foulkes estimate   =   -1403.71823591 Ry
     estimated scf accuracy    <       0.00096143 Ry

     iteration #  2     ecut=   100.00 Ry     beta= 0.30
     Davidson diagonalization with overlap
     ethr =  7.07E-07,  avg # of iterations =  3.0

     total cpu time spent up to now is     3222.3 secs

     total energy              =   -1403.71738415 Ry
     Harris-Foulkes estimate   =   -1403.71861021 Ry
     estimated scf accuracy    <       0.01428817 Ry

     iteration #  3     ecut=   100.00 Ry     beta= 0.30
     Davidson diagonalization with overlap
     ethr =  7.07E-07,  avg # of iterations =  2.0

     total cpu time spent up to now is     3224.6 secs

     total energy              =   -1403.71780880 Ry
     Harris-Foulkes estimate   =   -1403.71848206 Ry
     estimated scf accuracy    <       0.01268961 Ry

     iteration #  4     ecut=   100.00 Ry     beta= 0.30
     Davidson diagonalization with overlap
     ethr =  7.07E-07,  avg # of iterations =  1.0

     total cpu time spent up to now is     3226.7 secs

     total energy              =   -1403.71811977 Ry
     Harris-Foulkes estimate   =   -1403.71816076 Ry
     estimated scf accuracy    <       0.00038950 Ry

     iteration #  5     ecut=   100.00 Ry     beta= 0.30
     Davidson diagonalization with overlap
     ethr =  2.86E-07,  avg # of iterations =  1.0

     total cpu time spent up to now is     3228.9 secs

     total energy              =   -1403.71813256 Ry
     Harris-Foulkes estimate   =   -1403.71817050 Ry
     estimated scf accuracy    <       0.00066301 Ry

     iteration #  6     ecut=   100.00 Ry     beta= 0.30
     Davidson diagonalization with overlap
     ethr =  2.86E-07,  avg # of iterations =  1.0

     total cpu time spent up to now is     3231.0 secs

     total energy              =   -1403.71813467 Ry
     Harris-Foulkes estimate   =   -1403.71816520 Ry
     estimated scf accuracy    <       0.00032613 Ry

     iteration #  7     ecut=   100.00 Ry     beta= 0.30
     Davidson diagonalization with overlap
     ethr =  2.40E-07,  avg # of iterations =  1.0

     total cpu time spent up to now is     3233.2 secs

     total energy              =   -1403.71814787 Ry
     Harris-Foulkes estimate   =   -1403.71816667 Ry
     estimated scf accuracy    <       0.00032070 Ry

     iteration #  8     ecut=   100.00 Ry     beta= 0.30
     Davidson diagonalization with overlap
     ethr =  2.36E-07,  avg # of iterations =  1.0

     total cpu time spent up to now is     3235.4 secs

     total energy              =   -1403.71815767 Ry
     Harris-Foulkes estimate   =   -1403.71815936 Ry
     estimated scf accuracy    <       0.00001040 Ry

     iteration #  9     ecut=   100.00 Ry     beta= 0.30
     Davidson diagonalization with overlap
     ethr =  7.65E-09,  avg # of iterations =  2.0

     total cpu time spent up to now is     3237.6 secs

     total energy              =   -1403.71815881 Ry
     Harris-Foulkes estimate   =   -1403.71815974 Ry
     estimated scf accuracy    <       0.00000684 Ry

     iteration # 10     ecut=   100.00 Ry     beta= 0.30
     Davidson diagonalization with overlap
     ethr =  5.03E-09,  avg # of iterations =  1.0

     total cpu time spent up to now is     3239.7 secs

     End of self-consistent calculation

          k = 0.0000 0.0000 0.0000 (  5726 PWs)   bands (ev):

   -71.2992 -71.0696 -70.9996 -70.7549 -37.8138 -37.5304 -37.4909 -37.2809
   -37.2783 -37.2457 -37.1994 -37.0760 -36.8750 -36.7364 -36.6922 -36.6540
    -9.1193  -6.5616  -5.6025  -4.5286  -4.3600  -3.2380  -2.8001  -2.3041
    -1.8734  -1.3732  -0.7782  -0.3029   6.5808   6.6528   7.2267   7.6443
     7.8978   8.4615   8.6055   8.8537   9.0764   9.6792   9.9027  10.0789
    10.3611  10.6648  11.1231  11.4800  11.6219  11.6933  11.7361  12.0459
    12.6104  12.8228  12.9623  13.2807  13.4550  13.6226  13.8346  14.1081
    14.5099  14.7528  15.0314  15.0869  15.6860  15.9645  16.0872  16.4165
    16.6154  16.6713  16.8352  17.0034  17.0444  17.4248  17.4975  17.7213
    17.8098  17.9108  18.1233  18.5008  18.6406  18.9738  19.1091  19.2158
    19.6946  20.0287

     the Fermi energy is    17.0268 ev

!    total energy              =   -1403.71815927 Ry
     Harris-Foulkes estimate   =   -1403.71815954 Ry
     estimated scf accuracy    <       0.00000054 Ry

     convergence has been achieved in  10 iterations

     Forces acting on atoms (cartesian axes, Ry/au):

     atom    1 type  1   force =     0.08188396    0.18572488    0.03183636
     atom    2 type  2   force =    -0.01945021   -0.01083088    0.01361963
     atom    3 type  1   force =     0.07973990    0.04841558    0.06285929
     atom    4 type  1   force =    -0.05699184   -0.15737694   -0.03346107
     atom    5 type  1   force =    -0.03794164    0.03090903    0.02462740
     atom    6 type  2   force =    -0.00422657   -0.01153807    0.05093197
     atom    7 type  2   force =    -0.05760647    0.01534539   -0.06656837
     atom    8 type  2   force =    -0.01212669    0.05727883    0.04551813
     atom    9 type  2   force =    -0.00537128   -0.01133167   -0.01311984
     atom   10 type  2   force =     0.01549915   -0.00286323   -0.08269620
     atom   11 type  2   force =    -0.00779894   -0.01445830   -0.03171657
     atom   12 type  2   force =    -0.05404605   -0.10563237    0.00826599
     atom   13 type  2   force =     0.00236806    0.01216273   -0.02083537
     atom   14 type  2   force =     0.03531096    0.01180931   -0.00641007
     atom   15 type  2   force =     0.03378668   -0.00577660    0.01587724
     atom   16 type  2   force =     0.00697098   -0.04183770    0.00127149

     Total force =     0.363313     Total SCF correction =     0.002212

     Entering Dynamics:    iteration =   100
                           time      =   0.1000 pico-seconds


     Andersen thermostat:    1 collisions

ATOMIC_POSITIONS (angstrom)
Fe       1.216144867   0.482385259   0.578904389
O        3.881087681   3.390095984  -0.727124956
Fe       4.842115079   2.527801140   1.716770966
Fe      10.459904993   5.363499525   3.769901729
Fe       7.019039224   3.536855311   2.307128388
O        2.776995879   2.472228779   3.217650298
O        4.647565676   0.650222639   1.222407694
O        5.902753192   1.189743551   2.515052023
O        4.509714225   3.379319230   3.360434602
O        5.805655197   3.474830847   0.509294900
O        3.947012132   2.247947345   0.283109392
O        3.379999140   3.716849922   1.380218528
O        3.403983752   1.698221955   2.191010371
O        5.364752884   4.510440712   2.012189799
O        7.185119125   2.196860853   1.059002052
O        6.203999717   2.377025628   3.579980607


     kinetic energy (Ekin) =     0.06672372 Ry
     temperature           =   468.21463314 K 
     Ekin + Etot (const)   = -1403.65143556 Ry
     Message from routine dynamics:
     Total linear momentum <> 0

     Linear momentum :    0.0958657727    0.3252307748   -0.2316122916

     The maximum number of steps has been reached.

     End of molecular dynamics calculation

     diffusion coefficients :
     atom     1   D =       0.00000744 cm^2/s
     atom     2   D =       0.00009882 cm^2/s
     atom     3   D =       0.00001427 cm^2/s
     atom     4   D =       0.00000214 cm^2/s
     atom     5   D =       0.00001071 cm^2/s
     atom     6   D =       0.00002913 cm^2/s
     atom     7   D =       0.00000692 cm^2/s
     atom     8   D =       0.00013927 cm^2/s
     atom     9   D =       0.00006693 cm^2/s
     atom    10   D =       0.00004735 cm^2/s
     atom    11   D =       0.00026891 cm^2/s
     atom    12   D =       0.00001951 cm^2/s
     atom    13   D =       0.00016830 cm^2/s
     atom    14   D =       0.00001490 cm^2/s
     atom    15   D =       0.00010976 cm^2/s
     atom    16   D =       0.00004440 cm^2/s

     < D > =       0.00006555 cm^2/s

     Writing output data file x0.save
 
     init_run     :      5.59s CPU      5.72s WALL (       1 calls)
     electrons    :   2283.16s CPU   2391.96s WALL (     100 calls)
     update_pot   :    420.50s CPU    447.14s WALL (      99 calls)
     forces       :    346.05s CPU    352.95s WALL (     100 calls)

     Called by init_run:
     wfcinit      :      0.57s CPU      0.59s WALL (       1 calls)
     potinit      :      1.30s CPU      1.33s WALL (       1 calls)

     Called by electrons:
     c_bands      :   1204.98s CPU   1222.03s WALL (    1012 calls)
     sum_band     :    558.32s CPU    603.64s WALL (    1012 calls)
     v_of_rho     :    238.75s CPU    241.45s WALL (    1109 calls)
     newd         :    271.42s CPU    314.71s WALL (    1109 calls)
     mix_rho      :     28.89s CPU     29.25s WALL (    1012 calls)

     Called by c_bands:
     init_us_2    :      9.44s CPU      9.61s WALL (    2123 calls)
     regterg      :   1160.85s CPU   1177.32s WALL (    1012 calls)

     Called by sum_band:
     sum_band:bec :      0.04s CPU      0.04s WALL (    1012 calls)
     addusdens    :    286.94s CPU    329.59s WALL (    1012 calls)

     Called by *egterg:
     h_psi        :   1016.79s CPU   1025.52s WALL (    3284 calls)
     s_psi        :     24.80s CPU     25.10s WALL (    3382 calls)
     g_psi        :      4.33s CPU      4.39s WALL (    2271 calls)
     rdiaghg      :     22.11s CPU     22.40s WALL (    3181 calls)

     Called by h_psi:
     h_psi:pot    :   1011.89s CPU   1020.55s WALL (    3284 calls)
     h_psi:calbec :     21.49s CPU     21.71s WALL (    3284 calls)
     vloc_psi     :    968.28s CPU    976.47s WALL (    3284 calls)
     add_vuspsi   :     22.09s CPU     22.34s WALL (    3284 calls)

     General routines
     calbec       :     36.04s CPU     36.45s WALL (    4892 calls)
     fft          :    203.52s CPU    205.83s WALL (   18555 calls)
     ffts         :     18.97s CPU     19.17s WALL (    2121 calls)
     fftw         :   1084.34s CPU   1093.47s WALL (  237396 calls)
     interpolate  :     47.54s CPU     48.09s WALL (    2121 calls)
     davcio       :      0.05s CPU      1.69s WALL (     392 calls)
 
     Parallel routines
 
     PWSCF        : 51m28.76s CPU    54m 3.62s WALL

 
   This run was terminated on:  14: 8:33  23Jun2021            

=------------------------------------------------------------------------------=
   JOB DONE.
=------------------------------------------------------------------------------=
