
    -----------------------------------------------------------------------
          Psi4: An Open-Source Ab Initio Electronic Structure Package
                               Psi4 1.4rc1 

                         Git: Rev {HEAD} 2d37164 


    D. G. A. Smith, L. A. Burns, A. C. Simmonett, R. M. Parrish,
    M. C. Schieber, R. Galvelis, P. Kraus, H. Kruse, R. Di Remigio,
    A. Alenaizan, A. M. James, S. Lehtola, J. P. Misiewicz, M. Scheurer,
    R. A. Shaw, J. B. Schriber, Y. Xie, Z. L. Glick, D. A. Sirianni,
    J. S. O'Brien, J. M. Waldrop, A. Kumar, E. G. Hohenstein,
    B. P. Pritchard, B. R. Brooks, H. F. Schaefer III, A. Yu. Sokolov,
    K. Patkowski, A. E. DePrince III, U. Bozkaya, R. A. King,
    F. A. Evangelista, J. M. Turney, T. D. Crawford, C. D. Sherrill,
    J. Chem. Phys. 152(18) 184108 (2020). https://doi.org/10.1063/5.0006002

                            Additional Code Authors
    E. T. Seidl, C. L. Janssen, E. F. Valeev, M. L. Leininger,
    J. F. Gonthier, R. M. Richard, H. R. McAlexander, M. Saitow, X. Wang,
    P. Verma, and M. H. Lechner

             Previous Authors, Complete List of Code Contributors,
                       and Citations for Specific Modules
    https://github.com/psi4/psi4/blob/master/codemeta.json
    https://github.com/psi4/psi4/graphs/contributors
    http://psicode.org/psi4manual/master/introduction.html#citing-psifour

    -----------------------------------------------------------------------


    Psi4 started on: Thursday, 24 June 2021 09:49AM

    Process ID: 15316
    Host:       compute-0-18
    PSIDATADIR: /home3/molecula1/maplima/agf18/psi4conda/share/psi4
    Memory:     500.0 MiB
    Threads:    1
    
  ==> Input File <==

--------------------------------------------------------------------------
# Any line starting with the # character is a comment line

memory 120 gb

set parallel true
psi4.set_num_threads(12)

molecule c6h6 {
 C  2.6606200000 -0.0000000000  0.0000000000
 C -2.6606200000  0.0000000000  0.0000000000
 C -1.3303100000  2.3041700000  0.0000000000
 C  1.3303100000  2.3041700000  0.0000000000
 C -1.3303100000 -2.3041700000  0.0000000000
 C  1.3303100000 -2.3041700000  0.0000000000
 H  4.7284700000 -0.0000000000  0.0000000000
 H -4.7284700000  0.0000000000  0.0000000000
 H  2.3642200000  4.0949900000  0.0000000000
 H -2.3642200000  4.0949900000  0.0000000000
 H  2.3642200000 -4.0949900000  0.0000000000
 H -2.3642200000 -4.0949900000  0.0000000000
symmetry D2h
units bohr
}

set{ basis aug-cc-pVDZ
roots_per_irrep [3,3,3,3,3,3,3,3]
reference uhf
CC_NUM_THREADS 12
}

energy('eom-ccsd')
--------------------------------------------------------------------------

  Memory set to 111.759 GiB by Python driver.
  Threads set to 12 by Python driver.

Scratch directory: /tmp/

*** tstart() called on compute-0-18
*** at Thu Jun 24 09:49:14 2021

   => Loading Basis Set <=

    Name: AUG-CC-PVDZ
    Role: ORBITAL
    Keyword: BASIS
    atoms 1-6  entry C          line   182 file /home3/molecula1/maplima/agf18/psi4conda/share/psi4/basis/aug-cc-pvdz.gbs 
    atoms 7-12 entry H          line    40 file /home3/molecula1/maplima/agf18/psi4conda/share/psi4/basis/aug-cc-pvdz.gbs 


         ---------------------------------------------------------
                                   SCF
               by Justin Turney, Rob Parrish, Andy Simmonett
                          and Daniel G. A. Smith
                              UHF Reference
                       12 Threads, 114440 MiB Core
         ---------------------------------------------------------

  ==> Geometry <==

    Molecular point group: d2h
    Full point group: D2h

    Geometry (in Bohr), charge = 0, multiplicity = 1:

       Center              X                  Y                   Z               Mass       
    ------------   -----------------  -----------------  -----------------  -----------------
         C            2.660620000000     0.000000000000     0.000000000000    12.000000000000
         C           -2.660620000000    -0.000000000000     0.000000000000    12.000000000000
         C           -1.330310000000     2.304170000000     0.000000000000    12.000000000000
         C            1.330310000000     2.304170000000     0.000000000000    12.000000000000
         C           -1.330310000000    -2.304170000000     0.000000000000    12.000000000000
         C            1.330310000000    -2.304170000000     0.000000000000    12.000000000000
         H            4.728470000000     0.000000000000     0.000000000000     1.007825032230
         H           -4.728470000000    -0.000000000000     0.000000000000     1.007825032230
         H            2.364220000000     4.094990000000     0.000000000000     1.007825032230
         H           -2.364220000000     4.094990000000     0.000000000000     1.007825032230
         H            2.364220000000    -4.094990000000     0.000000000000     1.007825032230
         H           -2.364220000000    -4.094990000000     0.000000000000     1.007825032230

  Running in d2h symmetry.

  Rotational constants: A =      0.18670  B =      0.18670  C =      0.09335 [cm^-1]
  Rotational constants: A =   5597.13423  B =   5597.09967  C =   2798.55847 [MHz]
  Nuclear repulsion =  201.595839627617153

  Charge       = 0
  Multiplicity = 1
  Electrons    = 42
  Nalpha       = 21
  Nbeta        = 21

  ==> Algorithm <==

  SCF Algorithm Type is PK.
  DIIS enabled.
  MOM disabled.
  Fractional occupation disabled.
  Guess Type is SAD.
  Energy threshold   = 1.00e-08
  Density threshold  = 1.00e-08
  Integral threshold = 1.00e-12

  ==> Primary Basis <==

  Basis Set: AUG-CC-PVDZ
    Blend: AUG-CC-PVDZ
    Number of shells: 84
    Number of basis functions: 192
    Number of Cartesian functions: 204
    Spherical Harmonics?: true
    Max angular momentum: 2

  ==> Integral Setup <==

  Using in-core PK algorithm.
   Calculation information:
      Number of atoms:                  12
      Number of AO shells:              84
      Number of primitives:            192
      Number of atomic orbitals:       204
      Number of basis functions:       192

      Integral cutoff                 1.00e-12
      Number of threads:                12

  Performing in-core PK
  Using 343305312 doubles for integral storage.
  We computed 7685381 shell quartets total.
  Whereas there are 6374235 unique shell quartets.
    20.57 percent of shell quartets recomputed by reordering.

  ==> DiskJK: Disk-Based J/K Matrices <==

    J tasked:                  Yes
    K tasked:                  Yes
    wK tasked:                  No
    Memory [MiB]:            85830
    Schwarz Cutoff:          1E-12

    OpenMP threads:             12

  Minimum eigenvalue in the overlap matrix is 4.0282873258E-06.
  Reciprocal condition number of the overlap matrix is 4.1165359896E-07.
    Using symmetric orthogonalization.

  ==> Pre-Iterations <==

  SCF Guess: Superposition of Atomic Densities via on-the-fly atomic UHF (no occupation information).

   -------------------------
    Irrep   Nso     Nmo    
   -------------------------
     Ag        39      39 
     B1g       30      30 
     B2g       16      16 
     B3g       11      11 
     Au        11      11 
     B1u       16      16 
     B2u       30      30 
     B3u       39      39 
   -------------------------
    Total     192     192
   -------------------------

  ==> Iterations <==

                        Total Energy        Delta E     RMS |[F,P]|

   @UHF iter SAD:  -229.97331440679494   -2.29973e+02   0.00000e+00 
   @UHF iter   1:  -230.55658704408177   -5.83273e-01   6.72777e-03 DIIS
   @UHF iter   2:  -230.69153177084445   -1.34945e-01   3.28716e-03 DIIS
   @UHF iter   3:  -230.72409963112011   -3.25679e-02   5.34498e-04 DIIS
   @UHF iter   4:  -230.72554025993668   -1.44063e-03   5.62768e-05 DIIS
   @UHF iter   5:  -230.72556027453055   -2.00146e-05   1.07469e-05 DIIS
   @UHF iter   6:  -230.72556103477848   -7.60248e-07   1.16472e-06 DIIS
   @UHF iter   7:  -230.72556104441674   -9.63826e-09   1.52988e-07 DIIS
   @UHF iter   8:  -230.72556104461978   -2.03045e-10   3.15630e-08 DIIS
   @UHF iter   9:  -230.72556104463035   -1.05729e-11   4.89050e-09 DIIS
  Energy and wave function converged.


  ==> Post-Iterations <==

   @Spin Contamination Metric:  -7.815970093E-14
   @S^2 Expected:                0.000000000E+00
   @S^2 Observed:               -7.815970093E-14
   @S   Expected:                0.000000000E+00
   @S   Observed:                0.000000000E+00

    Orbital Energies [Eh]
    ---------------------

    Alpha Occupied:                                                       

       1Ag   -11.248568     1B3u  -11.248046     1B2u  -11.248046  
       2Ag   -11.246907     1B1g  -11.246907     2B3u  -11.246351  
       3Ag    -1.144825     2B2u   -1.012232     3B3u   -1.012231  
       4Ag    -0.822009     2B1g   -0.822008     5Ag    -0.703521  
       4B3u   -0.644018     3B2u   -0.614968     4B2u   -0.585237  
       5B3u   -0.585236     1B1u   -0.496563     3B1g   -0.493756  
       6Ag    -0.493755     1B3g   -0.334448     1B2g   -0.334447  

    Alpha Virtual:                                                        

       7Ag     0.035943     5B2u    0.042525     6B3u    0.042525  
       8Ag     0.057337     4B1g    0.057337     7B3u    0.076043  
       2B1u    0.104937     1Au     0.104938     3B1u    0.123426  
       2B3g    0.143513     2B2g    0.143514     6B2u    0.145772  
       7B2u    0.148436     8B3u    0.148437     9Ag     0.149640  
       5B1g    0.152925    10Ag     0.152925     8B2u    0.167994  
       9B3u    0.167995    11Ag     0.168536    10B3u    0.184479  
      12Ag     0.190676     6B1g    0.190676     3B2g    0.191945  
       4B1u    0.197899     2Au     0.197899     7B1g    0.266258  
       9B2u    0.300969    11B3u    0.300970     8B1g    0.312797  
      13Ag     0.312797    14Ag     0.324045     5B1u    0.337277  
       4B2g    0.341493    15Ag     0.353531     9B1g    0.353533  
      12B3u    0.366047    13B3u    0.376312    10B2u    0.376313  
      11B2u    0.386933    14B3u    0.407548     3B3g    0.426857  
       5B2g    0.426858    12B2u    0.428561    15B3u    0.428562  
      10B1g    0.440430    16Ag     0.440430     6B1u    0.503105  
       3Au     0.503105    17Ag     0.505841     4B3g    0.561929  
       6B2g    0.568853    13B2u    0.569711    16B3u    0.569712  
      18Ag     0.582999    11B1g    0.583001    12B1g    0.591196  
      19Ag     0.595981     7B1u    0.607384    20Ag     0.614410  
      14B2u    0.661696    17B3u    0.661697    18B3u    0.680946  
       4Au     0.685527     8B1u    0.685527    15B2u    0.690118  
      19B3u    0.690119    13B1g    0.692262    21Ag     0.692262  
       7B2g    0.756814     5B3g    0.756814    16B2u    0.762434  
      20B3u    0.774003    14B1g    0.774339    22Ag     0.774341  
       9B1u    0.840599    15B1g    0.845555    17B2u    0.847964  
      21B3u    0.847967    16B1g    0.886562    23Ag     0.886562  
       6B3g    0.918740     8B2g    0.918742    10B1u    0.923351  
       5Au     0.923352     9B2g    0.955879    24Ag     0.964768  
      17B1g    0.964768     7B3g    0.976694    10B2g    0.976694  
      22B3u    0.993649    25Ag     1.004727    23B3u    1.053777  
       6Au     1.075574    24B3u    1.093028    18B2u    1.093028  
       7Au     1.175982    11B1u    1.175984    18B1g    1.187146  
      19B2u    1.343101    25B3u    1.343103     8B3g    1.419102  
      11B2g    1.479154    20B2u    1.501133    21B2u    1.527296  
      26B3u    1.527303    26Ag     1.536331    19B1g    1.536332  
      12B1u    1.549154    27B3u    1.586594    27Ag     1.608165  
      28B3u    1.630727    22B2u    1.630728    20B1g    1.642081  
      28Ag     1.642082    29Ag     1.644831    13B1u    1.701889  
       8Au     1.701892     9B3g    1.711594    12B2g    1.711596  
      30Ag     1.781698    21B1g    1.781699    23B2u    1.781902  
      31Ag     1.832163     9Au     1.888544    14B1u    1.888544  
      32Ag     1.894878    22B1g    1.933637    29B3u    1.945697  
      24B2u    1.945697    23B1g    1.965020    33Ag     1.965020  
      13B2g    1.979210    30B3u    1.987717    31B3u    2.084927  
      25B2u    2.084932    15B1u    2.086057    10B3g    2.112372  
      14B2g    2.112375    15B2g    2.195486    11B3g    2.195488  
      24B1g    2.202203    34Ag     2.202204    26B2u    2.251818  
      32B3u    2.251823    27B2u    2.271826    25B1g    2.351965  
      10Au     2.357557    16B1u    2.357558    33B3u    2.372891  
      26B1g    2.429645    35Ag     2.429650    11Au     2.600624  
      16B2g    2.650796    36Ag     2.762131    27B1g    2.762134  
      34B3u    2.765943    28B2u    2.765951    37Ag     2.772825  
      35B3u    2.943227    36B3u    2.945290    29B2u    2.945291  
      30B2u    3.099492    37B3u    3.099506    38Ag     3.101015  
      28B1g    3.101016    29B1g    3.351327    30B1g    3.516338  
      39Ag     3.516349    38B3u    3.831727    39B3u    4.754730  

    Beta Occupied:                                                        

       1Ag   -11.248568     1B3u  -11.248046     1B2u  -11.248046  
       2Ag   -11.246907     1B1g  -11.246907     2B3u  -11.246351  
       3Ag    -1.144825     2B2u   -1.012232     3B3u   -1.012231  
       4Ag    -0.822009     2B1g   -0.822008     5Ag    -0.703521  
       4B3u   -0.644018     3B2u   -0.614968     4B2u   -0.585237  
       5B3u   -0.585236     1B1u   -0.496563     3B1g   -0.493756  
       6Ag    -0.493755     1B3g   -0.334448     1B2g   -0.334447  

    Beta Virtual:                                                         

       7Ag     0.035943     5B2u    0.042525     6B3u    0.042525  
       8Ag     0.057337     4B1g    0.057337     7B3u    0.076043  
       2B1u    0.104937     1Au     0.104938     3B1u    0.123426  
       2B3g    0.143513     2B2g    0.143514     6B2u    0.145772  
       7B2u    0.148436     8B3u    0.148437     9Ag     0.149640  
       5B1g    0.152925    10Ag     0.152925     8B2u    0.167994  
       9B3u    0.167995    11Ag     0.168536    10B3u    0.184479  
      12Ag     0.190676     6B1g    0.190676     3B2g    0.191945  
       4B1u    0.197899     2Au     0.197899     7B1g    0.266258  
       9B2u    0.300969    11B3u    0.300970     8B1g    0.312797  
      13Ag     0.312797    14Ag     0.324045     5B1u    0.337277  
       4B2g    0.341493    15Ag     0.353531     9B1g    0.353533  
      12B3u    0.366047    13B3u    0.376312    10B2u    0.376313  
      11B2u    0.386933    14B3u    0.407548     3B3g    0.426857  
       5B2g    0.426858    12B2u    0.428561    15B3u    0.428562  
      10B1g    0.440430    16Ag     0.440430     6B1u    0.503105  
       3Au     0.503105    17Ag     0.505841     4B3g    0.561929  
       6B2g    0.568853    13B2u    0.569711    16B3u    0.569712  
      18Ag     0.582999    11B1g    0.583001    12B1g    0.591196  
      19Ag     0.595981     7B1u    0.607384    20Ag     0.614410  
      14B2u    0.661696    17B3u    0.661697    18B3u    0.680946  
       4Au     0.685527     8B1u    0.685527    15B2u    0.690118  
      19B3u    0.690119    13B1g    0.692262    21Ag     0.692262  
       7B2g    0.756814     5B3g    0.756814    16B2u    0.762434  
      20B3u    0.774003    14B1g    0.774339    22Ag     0.774341  
       9B1u    0.840599    15B1g    0.845555    17B2u    0.847964  
      21B3u    0.847967    16B1g    0.886562    23Ag     0.886562  
       6B3g    0.918740     8B2g    0.918742    10B1u    0.923351  
       5Au     0.923352     9B2g    0.955879    24Ag     0.964768  
      17B1g    0.964768     7B3g    0.976694    10B2g    0.976694  
      22B3u    0.993649    25Ag     1.004727    23B3u    1.053777  
       6Au     1.075574    24B3u    1.093028    18B2u    1.093028  
       7Au     1.175982    11B1u    1.175984    18B1g    1.187146  
      19B2u    1.343101    25B3u    1.343103     8B3g    1.419102  
      11B2g    1.479154    20B2u    1.501133    21B2u    1.527296  
      26B3u    1.527303    26Ag     1.536331    19B1g    1.536332  
      12B1u    1.549154    27B3u    1.586594    27Ag     1.608165  
      28B3u    1.630727    22B2u    1.630728    20B1g    1.642081  
      28Ag     1.642082    29Ag     1.644831    13B1u    1.701889  
       8Au     1.701892     9B3g    1.711594    12B2g    1.711596  
      30Ag     1.781698    21B1g    1.781699    23B2u    1.781902  
      31Ag     1.832163     9Au     1.888544    14B1u    1.888544  
      32Ag     1.894878    22B1g    1.933637    29B3u    1.945697  
      24B2u    1.945697    23B1g    1.965020    33Ag     1.965020  
      13B2g    1.979210    30B3u    1.987717    31B3u    2.084927  
      25B2u    2.084932    15B1u    2.086057    10B3g    2.112372  
      14B2g    2.112375    15B2g    2.195486    11B3g    2.195488  
      24B1g    2.202203    34Ag     2.202204    26B2u    2.251818  
      32B3u    2.251823    27B2u    2.271826    25B1g    2.351965  
      10Au     2.357557    16B1u    2.357558    33B3u    2.372891  
      26B1g    2.429645    35Ag     2.429650    11Au     2.600624  
      16B2g    2.650796    36Ag     2.762131    27B1g    2.762134  
      34B3u    2.765943    28B2u    2.765951    37Ag     2.772825  
      35B3u    2.943227    36B3u    2.945290    29B2u    2.945291  
      30B2u    3.099492    37B3u    3.099506    38Ag     3.101015  
      28B1g    3.101016    29B1g    3.351327    30B1g    3.516338  
      39Ag     3.516349    38B3u    3.831727    39B3u    4.754730  

    Final Occupation by Irrep:
             Ag   B1g   B2g   B3g    Au   B1u   B2u   B3u 
    DOCC [     6,    3,    1,    1,    0,    1,    4,    5 ]
    SOCC [     0,    0,    0,    0,    0,    0,    0,    0 ]

  @UHF Final Energy:  -230.72556104463035

   => Energetics <=

    Nuclear Repulsion Energy =            201.5958396276171527
    One-Electron Energy =                -709.4746409790930102
    Two-Electron Energy =                 277.1532403068455324
    Total Energy =                       -230.7255610446303535

  UHF NO Occupations:
  HONO-2 :    5B3u 2.0000000
  HONO-1 :    4B2u 2.0000000
  HONO-0 :    6 Ag 2.0000000
  LUNO+0 :    6B3u 0.0000000
  LUNO+1 :    7B3u 0.0000000
  LUNO+2 :    5B2u 0.0000000
  LUNO+3 :    8B3u 0.0000000


Computation Completed


Properties will be evaluated at   0.000000,   0.000000,   0.000000 [a0]

Properties computed using the SCF density matrix

  Nuclear Dipole Moment: [e a0]
     X:     0.0000      Y:     0.0000      Z:     0.0000

  Electronic Dipole Moment: [e a0]
     X:     0.0000      Y:     0.0000      Z:     0.0000

  Dipole Moment: [e a0]
     X:     0.0000      Y:     0.0000      Z:     0.0000     Total:     0.0000

  Dipole Moment: [D]
     X:     0.0000      Y:     0.0000      Z:     0.0000     Total:     0.0000


*** tstop() called on compute-0-18 at Thu Jun 24 09:49:31 2021
Module time:
	user time   =      81.01 seconds =       1.35 minutes
	system time =       4.78 seconds =       0.08 minutes
	total time  =         17 seconds =       0.28 minutes
Total time:
	user time   =      81.01 seconds =       1.35 minutes
	system time =       4.78 seconds =       0.08 minutes
	total time  =         17 seconds =       0.28 minutes
 MINTS: Wrapper to libmints.
   by Justin Turney

   Calculation information:
      Number of threads:                12
      Number of atoms:                  12
      Number of AO shells:              84
      Number of SO shells:              28
      Number of primitives:            192
      Number of atomic orbitals:       204
      Number of basis functions:       192

      Number of irreps:                  8
      Integral cutoff                 1.00e-12
      Number of functions per irrep: [  39   30   16   11   11   16   30   39 ]

 OEINTS: Overlap, kinetic, potential, dipole, and quadrupole integrals
         stored in file 35.

      Computing two-electron integrals...done
      Computed 22303736 non-zero two-electron integrals.
        Stored in file 33.


*** tstart() called on compute-0-18
*** at Thu Jun 24 09:49:46 2021


	Wfn Parameters:
	--------------------
	Wavefunction         = CCSD
	Number of irreps     = 8
	Number of MOs        = 192
	Number of active MOs = 192
	AO-Basis             = NONE
	Semicanonical        = false
	Reference            = UHF
	Print Level          = 1

	IRREP	# MOs	# FZDC	# DOCC	# SOCC	# VIRT	# FZVR
	-----	-----	------	------	------	------	------
	 Ag	   39	    0	    6	    0	    33	    0
	 B1g	   30	    0	    3	    0	    27	    0
	 B2g	   16	    0	    1	    0	    15	    0
	 B3g	   11	    0	    1	    0	    10	    0
	 Au	   11	    0	    0	    0	    11	    0
	 B1u	   16	    0	    1	    0	    15	    0
	 B2u	   30	    0	    4	    0	    26	    0
	 B3u	   39	    0	    5	    0	    34	    0
	Transforming integrals...
	IWL integrals will be deleted.
	(OO|OO)...
	Presorting SO-basis two-electron integrals.
	Sorting File: SO Ints (nn|nn) nbuckets = 1
	Constructing frozen core operators
	Starting AA/AB first half-transformation.
	Sorting AA/AB half-transformed integrals.
	Starting BB first half-transformation.
	Sorting BB half-transformed integrals.
	First half integral transformation complete.
	Starting AA second half-transformation.
	Starting AB second half-transformation.
	Starting BB second half-transformation.
	Two-electron integral transformation complete.
	(OO|OV)...
	Starting AA second half-transformation.
	Starting AB second half-transformation.
	Starting BB second half-transformation.
	Two-electron integral transformation complete.
	(OO|VV)...
	Starting AA second half-transformation.
	Starting AB second half-transformation.
	Starting BB second half-transformation.
	Two-electron integral transformation complete.
	(OV|OO)...
	Starting AA/AB first half-transformation.
	Sorting AA/AB half-transformed integrals.
	Starting BB first half-transformation.
	Sorting BB half-transformed integrals.
	First half integral transformation complete.
	Starting AA second half-transformation.
	Starting AB second half-transformation.
	Starting BB second half-transformation.
	Two-electron integral transformation complete.
	(OV|OV)...
	Starting AA second half-transformation.
	Starting AB second half-transformation.
	Starting BB second half-transformation.
	Two-electron integral transformation complete.
	(OV|VV)...
	Starting AA second half-transformation.
	Starting AB second half-transformation.
	Starting BB second half-transformation.
	Two-electron integral transformation complete.
	(VV|OO)...
	Starting AA/AB first half-transformation.
	Sorting AA/AB half-transformed integrals.
	Starting BB first half-transformation.
	Sorting BB half-transformed integrals.
	First half integral transformation complete.
	Starting AA second half-transformation.
	Starting AB second half-transformation.
	Starting BB second half-transformation.
	Two-electron integral transformation complete.
	(VV|OV)...
	Starting AA second half-transformation.
	Starting AB second half-transformation.
	Starting BB second half-transformation.
	Two-electron integral transformation complete.
	(VV|VV)...
	Starting AA second half-transformation.
	Starting AB second half-transformation.
	Starting BB second half-transformation.
	Two-electron integral transformation complete.
	Frozen core energy     =      0.00000000000000

	Size of irrep 0 of <AB|CD> integrals:      4.306 (MW) /     34.445 (MB)
	Size of irrep 1 of <AB|CD> integrals:      4.368 (MW) /     34.945 (MB)
	Size of irrep 2 of <AB|CD> integrals:      2.437 (MW) /     19.494 (MB)
	Size of irrep 3 of <AB|CD> integrals:      2.247 (MW) /     17.976 (MB)
	Size of irrep 4 of <AB|CD> integrals:      2.244 (MW) /     17.952 (MB)
	Size of irrep 5 of <AB|CD> integrals:      2.440 (MW) /     19.519 (MB)
	Size of irrep 6 of <AB|CD> integrals:      4.372 (MW) /     34.978 (MB)
	Size of irrep 7 of <AB|CD> integrals:      4.661 (MW) /     37.290 (MB)
	Total:                                    27.075 (MW) /    216.599 (MB)

	Size of irrep 0 of <ab|cd> integrals:      4.306 (MW) /     34.445 (MB)
	Size of irrep 1 of <ab|cd> integrals:      4.368 (MW) /     34.945 (MB)
	Size of irrep 2 of <ab|cd> integrals:      2.437 (MW) /     19.494 (MB)
	Size of irrep 3 of <ab|cd> integrals:      2.247 (MW) /     17.976 (MB)
	Size of irrep 4 of <ab|cd> integrals:      2.244 (MW) /     17.952 (MB)
	Size of irrep 5 of <ab|cd> integrals:      2.440 (MW) /     19.519 (MB)
	Size of irrep 6 of <ab|cd> integrals:      4.372 (MW) /     34.978 (MB)
	Size of irrep 7 of <ab|cd> integrals:      4.661 (MW) /     37.290 (MB)
	Total:                                    27.075 (MW) /    216.599 (MB)

	Size of irrep 0 of <Ab|Cd> integrals:     18.671 (MW) /    149.368 (MB)
	Size of irrep 1 of <Ab|Cd> integrals:     17.472 (MW) /    139.779 (MB)
	Size of irrep 2 of <Ab|Cd> integrals:      9.747 (MW) /     77.975 (MB)
	Size of irrep 3 of <Ab|Cd> integrals:      8.988 (MW) /     71.904 (MB)
	Size of irrep 4 of <Ab|Cd> integrals:      8.976 (MW) /     71.808 (MB)
	Size of irrep 5 of <Ab|Cd> integrals:      9.759 (MW) /     78.075 (MB)
	Size of irrep 6 of <Ab|Cd> integrals:     17.489 (MW) /    139.913 (MB)
	Size of irrep 7 of <Ab|Cd> integrals:     18.645 (MW) /    149.161 (MB)
	Total:                                   109.748 (MW) /    877.984 (MB)

	Size of irrep 0 of <IA|BC> integrals:      2.562 (MW) /     20.499 (MB)
	Size of irrep 1 of <IA|BC> integrals:      2.353 (MW) /     18.827 (MB)
	Size of irrep 2 of <IA|BC> integrals:      1.040 (MW) /      8.317 (MB)
	Size of irrep 3 of <IA|BC> integrals:      0.917 (MW) /      7.339 (MB)
	Size of irrep 4 of <IA|BC> integrals:      0.923 (MW) /      7.382 (MB)
	Size of irrep 5 of <IA|BC> integrals:      1.034 (MW) /      8.272 (MB)
	Size of irrep 6 of <IA|BC> integrals:      2.346 (MW) /     18.769 (MB)
	Size of irrep 7 of <IA|BC> integrals:      2.574 (MW) /     20.588 (MB)
	Total:                                    13.749 (MW) /    109.993 (MB)

	Size of irrep 0 of <ia|bc> integrals:      2.562 (MW) /     20.499 (MB)
	Size of irrep 1 of <ia|bc> integrals:      2.353 (MW) /     18.827 (MB)
	Size of irrep 2 of <ia|bc> integrals:      1.040 (MW) /      8.317 (MB)
	Size of irrep 3 of <ia|bc> integrals:      0.917 (MW) /      7.339 (MB)
	Size of irrep 4 of <ia|bc> integrals:      0.923 (MW) /      7.382 (MB)
	Size of irrep 5 of <ia|bc> integrals:      1.034 (MW) /      8.272 (MB)
	Size of irrep 6 of <ia|bc> integrals:      2.346 (MW) /     18.769 (MB)
	Size of irrep 7 of <ia|bc> integrals:      2.574 (MW) /     20.588 (MB)
	Total:                                    13.749 (MW) /    109.993 (MB)

	Size of irrep 0 of <Ia|Bc> integrals:      2.562 (MW) /     20.499 (MB)
	Size of irrep 1 of <Ia|Bc> integrals:      2.353 (MW) /     18.827 (MB)
	Size of irrep 2 of <Ia|Bc> integrals:      1.040 (MW) /      8.317 (MB)
	Size of irrep 3 of <Ia|Bc> integrals:      0.917 (MW) /      7.339 (MB)
	Size of irrep 4 of <Ia|Bc> integrals:      0.923 (MW) /      7.382 (MB)
	Size of irrep 5 of <Ia|Bc> integrals:      1.034 (MW) /      8.272 (MB)
	Size of irrep 6 of <Ia|Bc> integrals:      2.346 (MW) /     18.769 (MB)
	Size of irrep 7 of <Ia|Bc> integrals:      2.574 (MW) /     20.588 (MB)
	Total:                                    13.749 (MW) /    109.993 (MB)

	Size of irrep 0 of <iA|bC> integrals:      2.562 (MW) /     20.499 (MB)
	Size of irrep 1 of <iA|bC> integrals:      2.353 (MW) /     18.827 (MB)
	Size of irrep 2 of <iA|bC> integrals:      1.040 (MW) /      8.317 (MB)
	Size of irrep 3 of <iA|bC> integrals:      0.917 (MW) /      7.339 (MB)
	Size of irrep 4 of <iA|bC> integrals:      0.923 (MW) /      7.382 (MB)
	Size of irrep 5 of <iA|bC> integrals:      1.034 (MW) /      8.272 (MB)
	Size of irrep 6 of <iA|bC> integrals:      2.346 (MW) /     18.769 (MB)
	Size of irrep 7 of <iA|bC> integrals:      2.574 (MW) /     20.588 (MB)
	Total:                                    13.749 (MW) /    109.993 (MB)

	Size of irrep 0 of tIjAb amplitudes:       0.385 (MW) /      3.077 (MB)
	Size of irrep 1 of tIjAb amplitudes:       0.326 (MW) /      2.608 (MB)
	Size of irrep 2 of tIjAb amplitudes:       0.087 (MW) /      0.699 (MB)
	Size of irrep 3 of tIjAb amplitudes:       0.078 (MW) /      0.624 (MB)
	Size of irrep 4 of tIjAb amplitudes:       0.072 (MW) /      0.575 (MB)
	Size of irrep 5 of tIjAb amplitudes:       0.094 (MW) /      0.750 (MB)
	Size of irrep 6 of tIjAb amplitudes:       0.335 (MW) /      2.676 (MB)
	Size of irrep 7 of tIjAb amplitudes:       0.371 (MW) /      2.971 (MB)
	Total:                                     1.748 (MW) /     13.980 (MB)

	Nuclear Rep. energy          =    201.59583962761715
	SCF energy                   =   -230.72556104463035
	One-electron energy          =   -709.47464146595814
	Two-electron (AA) energy     =     60.99662478075116
	Two-electron (BB) energy     =     60.99662478075116
	Two-electron (AB) energy     =    155.15999123221079
	Two-electron energy          =    277.15324079371311
	Reference energy             =   -230.72556104462782

*** tstop() called on compute-0-18 at Thu Jun 24 09:50:26 2021
Module time:
	user time   =     132.82 seconds =       2.21 minutes
	system time =      18.43 seconds =       0.31 minutes
	total time  =         40 seconds =       0.67 minutes
Total time:
	user time   =     229.11 seconds =       3.82 minutes
	system time =      23.68 seconds =       0.39 minutes
	total time  =         72 seconds =       1.20 minutes
            **************************
            *                        *
            *        CCENERGY        *
            *                        *
            **************************

    Nuclear Rep. energy (wfn)     =  201.595839627617153
    SCF energy          (wfn)     = -230.725561044630354
    Reference energy    (file100) = -230.725561044627824

    Input parameters:
    -----------------
    Wave function   =     CCSD
    Reference wfn   =     UHF
    Brueckner       =     No
    Memory (Mbytes) =     120000.0
    Maxiter         =     50
    R_Convergence   =     1.0e-07
    E_Convergence   =     1.0e-06
    Restart         =     Yes
    DIIS            =     Yes
    AO Basis        =     NONE
    ABCD            =     NEW
    Cache Level     =     2
    Cache Type      =     LRU
    Print Level     =     1
    Num. of threads =     12
    # Amps to Print =     10
    Print MP2 Amps? =     No
    Analyze T2 Amps =     No
    Print Pair Ener =     No
    Local CC        =     No
    SCS-MP2         =     False
    SCSN-MP2        =     False
    SCS-CCSD        =     False

MP2 correlation energy -0.8316238679266008
                Solving CC Amplitude Equations
                ------------------------------
  Iter             Energy              RMS        T1Diag      D1Diag    New D1Diag    D2Diag
  ----     ---------------------    ---------   ----------  ----------  ----------   --------
     0        -0.831623867926601    0.000e+00    0.000000    0.000000    0.000000    0.000000
     1        -0.837737131557096    1.125e-01    0.009593    0.000000    0.000000    0.000000
     2        -0.860532776131822    3.584e-02    0.009996    0.000000    0.000000    0.000000
     3        -0.866268873386148    1.548e-02    0.011389    0.000000    0.000000    0.000000
     4        -0.866440376538435    4.639e-03    0.011589    0.000000    0.000000    0.000000
     5        -0.866458159015230    1.540e-03    0.011630    0.000000    0.000000    0.000000
     6        -0.866453712891619    3.831e-04    0.011620    0.000000    0.000000    0.000000
     7        -0.866453833743513    1.071e-04    0.011618    0.000000    0.000000    0.000000
     8        -0.866455139047197    3.081e-05    0.011618    0.000000    0.000000    0.000000
     9        -0.866455430562985    8.923e-06    0.011618    0.000000    0.000000    0.000000
    10        -0.866455095626348    2.735e-06    0.011618    0.000000    0.000000    0.000000
    11        -0.866455130680432    7.246e-07    0.011618    0.000000    0.000000    0.000000
    12        -0.866455111886168    2.104e-07    0.011618    0.000000    0.000000    0.000000
    13        -0.866455116442166    6.494e-08    0.011618    0.000000    0.000000    0.000000

    Iterations converged.


    Largest TIA Amplitudes:
              9  68         0.0162984929
             10  80         0.0162983909
             11 103         0.0126734860
             10  79         0.0112013711
              9  66         0.0112013110
             14 117        -0.0103708235
              9  60         0.0102698180
             10  75        -0.0102696901
              4  13        -0.0097496775
              9  65         0.0076797028

    Largest Tia Amplitudes:
              9  68         0.0162984929
             10  80         0.0162983909
             11 103         0.0126734860
             10  79         0.0112013711
              9  66         0.0112013110
             14 117        -0.0103708235
              9  60         0.0102698180
             10  75        -0.0102696901
              4  13        -0.0097496775
              9  65         0.0076797028

    Largest TIJAB Amplitudes:
     10   9  96  85         0.0370500666
     10   9  96  86         0.0226050342
     10   9  98  85         0.0226048453
     10   9  98  86         0.0142969863
     11   9  96  62        -0.0091443190
     11  10  85  62         0.0091442289
     14  10  96  11         0.0082603968
     14   9  85  11        -0.0082603886
     14   9  96  40         0.0082602420
     14  10  85  40         0.0082597225

    Largest Tijab Amplitudes:
     10   9  96  85         0.0370500666
     10   9  96  86         0.0226050342
     10   9  98  85         0.0226048453
     10   9  98  86         0.0142969863
     11   9  96  62        -0.0091443190
     11  10  85  62         0.0091442289
     14  10  96  11         0.0082603968
     14   9  85  11        -0.0082603886
     14   9  96  40         0.0082602420
     14  10  85  40         0.0082597225

    Largest TIjAb Amplitudes:
      9   9  96  96        -0.0606161025
     10  10  85  85        -0.0606153025
      9   9  96  98        -0.0398473375
      9   9  98  96        -0.0398473375
     10  10  85  86        -0.0398471443
     10  10  86  85        -0.0398471443
      9  10  85  96         0.0362824830
     10   9  96  85         0.0362824830
      9  11  62  96        -0.0296475277
     11   9  96  62        -0.0296475277

    SCF energy       (wfn)                    = -230.725561044630354
    Reference energy (file100)                = -230.725561044627824

    Opposite-spin MP2 correlation energy      =   -0.613355915034313
    Same-spin MP2 correlation energy          =   -0.218267952892288
    Singles MP2 correlation energy            =   -0.000000000000000
    MP2 correlation energy                    =   -0.831623867926601
      * MP2 total energy                      = -231.557184912554419

    Opposite-spin CCSD correlation energy     =   -0.671373765204638
    Same-spin CCSD correlation energy         =   -0.195081351237522
    Singles CCSD correlation energy           =   -0.000000000000006
    CCSD correlation energy                   =   -0.866455116442166
      * CCSD total energy                     = -231.592016161069978


			**************************
			*                        *
			*         CCHBAR         *
			*                        *
			**************************


	**********************************************************
	*  CCEOM: An Equation of Motion Coupled Cluster Program  *
	**********************************************************

	Nuclear Rep. energy (wfn)     =  201.595839627617153
	SCF energy          (wfn)     = -230.725561044630354
	Reference energy    (file100) = -230.725561044627824
	CCSD energy         (file100) =   -0.866455116442166

	Input parameters:
	-----------------
	Reference wfn   =     UHF
	Reference EOM wfn=     UHF
	Memory (Mbytes) =  120000.0
	ABCD            =     NEW
	Cache Level     =    2
	Cache Type      =     LRU
	Num. of threads =     12
	Local CC        =     No


	CCEOM parameters:
	-----------------
	States sought per irrep     = Ag 3, B1g 3, B2g 3, B3g 3, Au 3, B1u 3, B2u 3, B3u 3,
	Max. number of iterations   =    80
	Vectors stored per root     =    12
	Print HbarSS iterations?    =     0
	Excitation range for HBarSS =     2
	Eigenvalue tolerance        = 1.0e-06
	Eigenvalue toleranceSS      = 1.0e-06
	Residual vector tolerance   = 1.0e-06
	Residual vector toleranceSS = 1.0e-06
	Complex tolerance           = 1.0e-12
	Root for properties         =     3
	Sym of state for properties =    B3u
	Guess vectors taken from    = SINGLES
	Restart EOM CC3             = NO
	Collapse with last vector   = YES



Fae   dot Fae   total  847.7107283650
Fmi   dot Fmi   total 1533.8631027288
WmBeJ and WMbEj dots    3.7264691008
Symmetry of ground state: Ag
Symmetry of excited state: Ag
Symmetry of right eigenvector: Ag
Obtaining initial guess from singles-singles block of Hbar...Done.

Iter=1    L=3     Root    EOM Energy     Delta E   Res. Norm    Conv?
                     1   0.3782486594   3.78e-01    4.07e-01      N
                     2   0.3905854606   3.91e-01    3.14e-01      N
                     3   0.4123236005   4.12e-01    3.50e-01      N
Iter=2    L=6     Root    EOM Energy     Delta E   Res. Norm    Conv?
                     1   0.2857084842  -9.25e-02    8.15e-02      N
                     2   0.3178981608  -7.27e-02    5.18e-02      N
                     3   0.3266542983  -8.57e-02    5.84e-02      N
Iter=3    L=9     Root    EOM Energy     Delta E   Res. Norm    Conv?
                     1   0.2799642933  -5.74e-03    4.26e-02      N
                     2   0.3155823976  -2.32e-03    2.29e-02      N
                     3   0.3234398752  -3.21e-03    2.69e-02      N
Iter=4    L=12    Root    EOM Energy     Delta E   Res. Norm    Conv?
                     1   0.2785020846  -1.46e-03    1.90e-02      N
                     2   0.3150969961  -4.85e-04    9.85e-03      N
                     3   0.3227902487  -6.50e-04    1.10e-02      N
Iter=5    L=15    Root    EOM Energy     Delta E   Res. Norm    Conv?
                     1   0.2783005683  -2.02e-04    8.38e-03      N
                     2   0.3149322175  -1.65e-04    6.95e-03      N
                     3   0.3226602500  -1.30e-04    5.97e-03      N
Iter=6    L=18    Root    EOM Energy     Delta E   Res. Norm    Conv?
                     1   0.2782409149  -5.97e-05    3.46e-03      N
                     2   0.3148932837  -3.89e-05    3.06e-03      N
                     3   0.3226331012  -2.71e-05    2.76e-03      N
Iter=7    L=21    Root    EOM Energy     Delta E   Res. Norm    Conv?
                     1   0.2782205540  -2.04e-05    2.57e-03      N
                     2   0.3148922889  -9.95e-07    1.03e-03      N
                     3   0.3226291861  -3.92e-06    2.01e-03      N
Iter=8    L=24    Root    EOM Energy     Delta E   Res. Norm    Conv?
                     1   0.2782161953  -4.36e-06    1.52e-03      N
                     2   0.3148904023  -1.89e-06    4.49e-04      N
                     3   0.3226240875  -5.10e-06    1.54e-03      N
Iter=9    L=27    Root    EOM Energy     Delta E   Res. Norm    Conv?
                     1   0.2782123624  -3.83e-06    6.66e-04      N
                     2   0.3148888499  -1.55e-06    2.34e-04      N
                     3   0.3226169211  -7.17e-06    9.82e-04      N
Iter=10   L=30    Root    EOM Energy     Delta E   Res. Norm    Conv?
                     1   0.2782118018  -5.61e-07    3.04e-04      N
                     2   0.3148887407  -1.09e-07    1.77e-04      N
                     3   0.3226150513  -1.87e-06    7.45e-04      N
Iter=11   L=33    Root    EOM Energy     Delta E   Res. Norm    Conv?
                     1   0.2782119927   1.91e-07    1.71e-04      N
                     2   0.3148890076   2.67e-07    1.16e-04      N
                     3   0.3226148186  -2.33e-07    6.57e-04      N
Iter=12   L=36    Root    EOM Energy     Delta E   Res. Norm    Conv?
                     1   0.2782121524   1.60e-07    1.04e-04      N
                     2   0.3148890019  -5.69e-09    6.36e-05      N
                     3   0.3226137189  -1.10e-06    5.78e-04      N
Iter=13   L=6     Root    EOM Energy     Delta E   Res. Norm    Conv?
                     1   0.2782121524  -2.50e-15    1.04e-04      N
                     2   0.3148890019  -2.22e-16    6.36e-05      N
                     3   0.3226137189  -2.33e-15    5.78e-04      N
Iter=14   L=9     Root    EOM Energy     Delta E   Res. Norm    Conv?
                     1   0.2782121984   4.60e-08    7.19e-05      N
                     2   0.3148890565   5.46e-08    2.50e-05      N
                     3   0.3226133984  -3.21e-07    5.82e-04      N
Iter=15   L=12    Root    EOM Energy     Delta E   Res. Norm    Conv?
                     1   0.2782123439   1.45e-07    3.85e-05      N
                     2   0.3148890662   9.71e-09    1.19e-05      N
                     3   0.3226136192   2.21e-07    4.59e-04      N
Iter=16   L=15    Root    EOM Energy     Delta E   Res. Norm    Conv?
                     1   0.2782123525   8.56e-09    1.62e-05      N
                     2   0.3148890548  -1.13e-08    5.12e-06      N
                     3   0.3226126480  -9.71e-07    2.64e-04      N
Iter=17   L=18    Root    EOM Energy     Delta E   Res. Norm    Conv?
                     1   0.2782123244  -2.81e-08    6.30e-06      N
                     2   0.3148890511  -3.74e-09    2.02e-06      N
                     3   0.3226127167   6.88e-08    1.31e-04      N
Iter=18   L=21    Root    EOM Energy     Delta E   Res. Norm    Conv?
                     1   0.2782123277   3.33e-09    2.68e-06      N
                     2   0.3148890464  -4.70e-09    8.05e-07      Y
                     3   0.3226125691  -1.48e-07    8.42e-05      N
Iter=19   L=23    Root    EOM Energy     Delta E   Res. Norm    Conv?
                     1   0.2782123259  -1.82e-09    1.24e-06      N
                     2   0.3148890464  -1.67e-16    8.05e-07      Y
                     3   0.3226127999   2.31e-07    5.29e-05      N
Iter=20   L=25    Root    EOM Energy     Delta E   Res. Norm    Conv?
                     1   0.2782123253  -6.02e-10    5.92e-07      Y
                     2   0.3148890464   1.11e-16    8.05e-07      Y
                     3   0.3226128383   3.84e-08    3.09e-05      N
Iter=21   L=26    Root    EOM Energy     Delta E   Res. Norm    Conv?
                     1   0.2782123265   1.22e-09    4.69e-07      Y
                     2   0.3148890464   5.55e-16    8.05e-07      Y
                     3   0.3226128110  -2.73e-08    1.62e-05      N
Iter=22   L=27    Root    EOM Energy     Delta E   Res. Norm    Conv?
                     1   0.2782123261  -3.58e-10    4.33e-07      Y
                     2   0.3148890464  -6.11e-16    8.05e-07      Y
                     3   0.3226127747  -3.63e-08    7.66e-06      N
Iter=23   L=28    Root    EOM Energy     Delta E   Res. Norm    Conv?
                     1   0.2782123262   2.87e-11    4.21e-07      Y
                     2   0.3148890464   2.22e-16    8.05e-07      Y
                     3   0.3226127887   1.40e-08    3.57e-06      N
Iter=24   L=29    Root    EOM Energy     Delta E   Res. Norm    Conv?
                     1   0.2782123261  -1.94e-11    4.19e-07      Y
                     2   0.3148890464  -3.33e-16    8.05e-07      Y
                     3   0.3226127763  -1.23e-08    1.83e-06      N
Iter=25   L=30    Root    EOM Energy     Delta E   Res. Norm    Conv?
                     1   0.2782123262   2.62e-11    4.19e-07      Y
                     2   0.3148890464   3.89e-16    8.05e-07      Y
                     3   0.3226127803   3.95e-09    1.02e-06      N
Iter=26   L=31    Root    EOM Energy     Delta E   Res. Norm    Conv?
                     1   0.2782123262   9.07e-12    4.19e-07      Y
                     2   0.3148890464   1.11e-16    8.05e-07      Y
                     3   0.3226127818   1.51e-09    5.07e-07      Y
Collapsing to only 3 vector(s).

Procedure converged for 3 root(s).
<R|R> =   1.0000000000000000
EOM CCSD R0 for root 0 =  -0.00000000000
<R|R> =   0.9999999999999999
EOM CCSD R0 for root 1 =   0.00000000000
<R|R> =   1.0000000000000002
EOM CCSD R0 for root 2 =   0.00000000000

Final Energetic Summary for Converged Roots of Irrep Ag
                     Excitation Energy              Total Energy
                (eV)     (cm^-1)     (au)             (au)
EOM State 1      7.571    61060.5   0.2782123262  -231.313803834887

Largest components of excited wave function #1:
 RIA (libdpd indices) : (cscf notation)
         0 >   0      :      1b1u >   2b1u :   -0.5037123264
         0 >   2      :      1b2g >   4b2g :   -0.3136285223
         0 >   2      :      1b1u >   4b1u :   -0.2428579905
         0 >   1      :      1b2g >   3b2g :   -0.1471653897
         0 >   4      :      1b2g >   6b2g :   -0.0890355079
 Ria (libdpd indices) : (cscf notation)
         0 >   0      :      1b1u >   2b1u :    0.5037123264
         0 >   2      :      1b2g >   4b2g :    0.3136285223
         0 >   2      :      1b1u >   4b1u :    0.2428579905
         0 >   1      :      1b2g >   3b2g :    0.1471653897
         0 >   4      :      1b2g >   6b2g :    0.0890355079
 RIjAb (libdpd indices)     : (cscf notation)
        0   0 >   0   0     :   1b2g   1b3g >    1au   2b1u :    0.1034556228
        0   0 >   0   0     :   1b3g   1b2g >   2b1u    1au :   -0.1034556228
        0   0 >   1   0     :   1b2g   1b3g >    2au   2b1u :    0.0603502686
        0   0 >   0   1     :   1b3g   1b2g >   2b1u    2au :   -0.0603502686
        0   0 >   0   2     :   1b2g   1b3g >    1au   4b1u :    0.0534267072
 RIJAB (libdpd indices)     : (cscf notation)
        2   0 >   0  11     :   3b2u   1b3g >   2b1u   18ag :   -0.0066509198
        0   0 >   0   2     :   1b1u   1b3g >   2b1u   4b3g :    0.0062586679
        0   0 >   0   2     :   1b1u   1b2g >    1au   4b3g :   -0.0062586677
        0   2 >  10   0     :   1b3g   3b1g >  16b3u   2b1u :   -0.0058828397
        0   5 >   8   0     :   1b3g    6ag >  13b2u   2b1u :   -0.0058185707
 Rijab (libdpd indices)     : (cscf notation)
        2   0 >   0  11     :   3b2u   1b3g >   2b1u   18ag :    0.0066509198
        0   0 >   0   2     :   1b1u   1b3g >   2b1u   4b3g :   -0.0062586679
        0   0 >   0   2     :   1b1u   1b2g >    1au   4b3g :    0.0062586677
        0   2 >  10   0     :   1b3g   3b1g >  16b3u   2b1u :    0.0058828397
        0   5 >   8   0     :   1b3g    6ag >  13b2u   2b1u :    0.0058185707
EOM State 2      8.569    69110.2   0.3148890464  -231.277127114695

Largest components of excited wave function #2:
 RIA (libdpd indices) : (cscf notation)
         0 >   0      :      1b2g >   2b2g :   -0.4723043352
         0 >   0      :      1b3g >   2b3g :    0.4722709891
         0 >   1      :      1b1u >   3b1u :   -0.1243315039
         0 >   3      :      1b2g >   5b2g :   -0.0512182995
         0 >   1      :      1b3g >   3b3g :   -0.0512153455
 Ria (libdpd indices) : (cscf notation)
         0 >   0      :      1b2g >   2b2g :    0.4723043352
         0 >   0      :      1b3g >   2b3g :   -0.4722709891
         0 >   1      :      1b1u >   3b1u :    0.1243315039
         0 >   3      :      1b2g >   5b2g :    0.0512182995
         0 >   1      :      1b3g >   3b3g :    0.0512153455
 RIjAb (libdpd indices)     : (cscf notation)
        0   0 >   0   0     :   1b2g   1b1u >   2b1u   2b2g :    0.0260070962
        0   0 >   0   0     :   1b1u   1b2g >   2b2g   2b1u :   -0.0260070962
        0   0 >   0   0     :   1b3g   1b1u >    1au   2b2g :    0.0260066715
        0   0 >   0   0     :   1b1u   1b3g >   2b2g    1au :   -0.0260066715
        0   0 >   0   0     :   1b2g   1b1u >    1au   2b3g :   -0.0260050528
 RIJAB (libdpd indices)     : (cscf notation)
        0   0 >   0   0     :   1b3g   1b2g >   2b3g   2b2g :    0.0191908722
        0   0 >   0   0     :   1b1u   1b2g >   2b1u   2b2g :    0.0122109863
        0   0 >   0   0     :   1b1u   1b3g >    1au   2b2g :    0.0122108272
        0   0 >   0   0     :   1b1u   1b2g >    1au   2b3g :   -0.0122101661
        0   0 >   0   0     :   1b1u   1b3g >   2b1u   2b3g :    0.0122100471
 Rijab (libdpd indices)     : (cscf notation)
        0   0 >   0   0     :   1b3g   1b2g >   2b3g   2b2g :   -0.0191908722
        0   0 >   0   0     :   1b1u   1b2g >   2b1u   2b2g :   -0.0122109863
        0   0 >   0   0     :   1b1u   1b3g >    1au   2b2g :   -0.0122108272
        0   0 >   0   0     :   1b1u   1b2g >    1au   2b3g :    0.0122101661
        0   0 >   0   0     :   1b1u   1b3g >   2b1u   2b3g :   -0.0122100471
EOM State 3      8.779    70805.3   0.3226127818  -231.269403379274

Largest components of excited wave function #3:
 RIA (libdpd indices) : (cscf notation)
         0 >   0      :      1b3g >   2b3g :   -0.4726707000
         0 >   0      :      1b2g >   2b2g :   -0.4726375463
         0 >   0      :      1b1u >   2b1u :    0.0896669184
         0 >   1      :      1b3g >   3b3g :    0.0440696842
         0 >   3      :      1b2g >   5b2g :   -0.0440657542
 Ria (libdpd indices) : (cscf notation)
         0 >   0      :      1b3g >   2b3g :    0.4726707000
         0 >   0      :      1b2g >   2b2g :    0.4726375463
         0 >   0      :      1b1u >   2b1u :   -0.0896669184
         0 >   1      :      1b3g >   3b3g :   -0.0440696842
         0 >   3      :      1b2g >   5b2g :    0.0440657542
 RIjAb (libdpd indices)     : (cscf notation)
        0   0 >   0   0     :   1b3g   1b1u >   2b1u   2b3g :   -0.0310654549
        0   0 >   0   0     :   1b1u   1b3g >   2b3g   2b1u :    0.0310654549
        0   0 >   0   0     :   1b2g   1b1u >   2b1u   2b2g :    0.0299552802
        0   0 >   0   0     :   1b1u   1b2g >   2b2g   2b1u :   -0.0299552802
        0   0 >   0   0     :   1b3g   1b1u >    1au   2b2g :    0.0252906674
 RIJAB (libdpd indices)     : (cscf notation)
        0   0 >   1   0     :   1b3g   1b2g >   3b1u    1au :   -0.0184092149
        0   0 >   0   0     :   1b1u   1b3g >   2b1u   2b3g :   -0.0150209466
        0   0 >   0   0     :   1b1u   1b2g >   2b1u   2b2g :    0.0147967466
        0   0 >   1   1     :   1b3g   1b2g >   3b1u    2au :   -0.0112406488
        0   0 >   0   0     :   1b1u   1b3g >    1au   2b2g :    0.0102154131
 Rijab (libdpd indices)     : (cscf notation)
        0   0 >   1   0     :   1b3g   1b2g >   3b1u    1au :    0.0184092149
        0   0 >   0   0     :   1b1u   1b3g >   2b1u   2b3g :    0.0150209466
        0   0 >   0   0     :   1b1u   1b2g >   2b1u   2b2g :   -0.0147967466
        0   0 >   1   1     :   1b3g   1b2g >   3b1u    2au :    0.0112406488
        0   0 >   0   0     :   1b1u   1b3g >    1au   2b2g :   -0.0102154131

Symmetry of excited state: B1g
Symmetry of right eigenvector: B1g
Obtaining initial guess from singles-singles block of Hbar...Done.

Iter=1    L=3     Root    EOM Energy     Delta E   Res. Norm    Conv?
                     1   0.3782491070   3.78e-01    4.07e-01      N
                     2   0.4123236162   4.12e-01    3.50e-01      N
                     3   0.4131464649   4.13e-01    3.30e-01      N
Iter=2    L=6     Root    EOM Energy     Delta E   Res. Norm    Conv?
                     1   0.2857090280  -9.25e-02    8.15e-02      N
                     2   0.3266543063  -8.57e-02    5.84e-02      N
                     3   0.3280922245  -8.51e-02    6.02e-02      N
Iter=3    L=9     Root    EOM Energy     Delta E   Res. Norm    Conv?
                     1   0.2799648399  -5.74e-03    4.26e-02      N
                     2   0.3234398810  -3.21e-03    2.69e-02      N
                     3   0.3246889345  -3.40e-03    2.92e-02      N
Iter=4    L=12    Root    EOM Energy     Delta E   Res. Norm    Conv?
                     1   0.2785026295  -1.46e-03    1.90e-02      N
                     2   0.3227902551  -6.50e-04    1.10e-02      N
                     3   0.3239568968  -7.32e-04    1.26e-02      N
Iter=5    L=15    Root    EOM Energy     Delta E   Res. Norm    Conv?
                     1   0.2783011129  -2.02e-04    8.38e-03      N
                     2   0.3226602573  -1.30e-04    5.97e-03      N
                     3   0.3237639660  -1.93e-04    8.77e-03      N
Iter=6    L=18    Root    EOM Energy     Delta E   Res. Norm    Conv?
                     1   0.2782414589  -5.97e-05    3.46e-03      N
                     2   0.3226331097  -2.71e-05    2.76e-03      N
                     3   0.3236708857  -9.31e-05    7.16e-03      N
Iter=7    L=21    Root    EOM Energy     Delta E   Res. Norm    Conv?
                     1   0.2782210979  -2.04e-05    2.57e-03      N
                     2   0.3226291953  -3.91e-06    2.01e-03      N
                     3   0.3235910192  -7.99e-05    8.92e-03      N
Iter=8    L=24    Root    EOM Energy     Delta E   Res. Norm    Conv?
                     1   0.2782167395  -4.36e-06    1.52e-03      N
                     2   0.3226240980  -5.10e-06    1.54e-03      N
                     3   0.3234610673  -1.30e-04    8.34e-03      N
Iter=9    L=27    Root    EOM Energy     Delta E   Res. Norm    Conv?
                     1   0.2782129067  -3.83e-06    6.66e-04      N
                     2   0.3226169331  -7.16e-06    9.81e-04      N
                     3   0.3233142101  -1.47e-04    7.38e-03      N
Iter=10   L=30    Root    EOM Energy     Delta E   Res. Norm    Conv?
                     1   0.2782123462  -5.60e-07    3.04e-04      N
                     2   0.3226150641  -1.87e-06    7.45e-04      N
                     3   0.3232259075  -8.83e-05    7.70e-03      N
Iter=11   L=33    Root    EOM Energy     Delta E   Res. Norm    Conv?
                     1   0.2782125371   1.91e-07    1.71e-04      N
                     2   0.3226148316  -2.33e-07    6.57e-04      N
                     3   0.3230939260  -1.32e-04    8.62e-03      N
Iter=12   L=36    Root    EOM Energy     Delta E   Res. Norm    Conv?
                     1   0.2782126968   1.60e-07    1.04e-04      N
                     2   0.3226137326  -1.10e-06    5.77e-04      N
                     3   0.3230184764  -7.54e-05    5.90e-03      N
Iter=13   L=6     Root    EOM Energy     Delta E   Res. Norm    Conv?
                     1   0.2782126968  -5.55e-16    1.04e-04      N
                     2   0.3226137326  -3.89e-16    5.77e-04      N
                     3   0.3230184764   4.44e-16    5.90e-03      N
Iter=14   L=9     Root    EOM Energy     Delta E   Res. Norm    Conv?
                     1   0.2782127427   4.59e-08    7.19e-05      N
                     2   0.3226134119  -3.21e-07    5.81e-04      N
                     3   0.3229562217  -6.23e-05    3.58e-03      N
Iter=15   L=12    Root    EOM Energy     Delta E   Res. Norm    Conv?
                     1   0.2782128882   1.45e-07    3.85e-05      N
                     2   0.3226136334   2.21e-07    4.59e-04      N
                     3   0.3229470784  -9.14e-06    1.78e-03      N
Iter=16   L=15    Root    EOM Energy     Delta E   Res. Norm    Conv?
                     1   0.2782128968   8.57e-09    1.62e-05      N
                     2   0.3226126624  -9.71e-07    2.64e-04      N
                     3   0.3229409389  -6.14e-06    8.28e-04      N
Iter=17   L=18    Root    EOM Energy     Delta E   Res. Norm    Conv?
                     1   0.2782128687  -2.81e-08    6.30e-06      N
                     2   0.3226127313   6.89e-08    1.31e-04      N
                     3   0.3229384108  -2.53e-06    4.99e-04      N
Iter=18   L=21    Root    EOM Energy     Delta E   Res. Norm    Conv?
                     1   0.2782128720   3.33e-09    2.68e-06      N
                     2   0.3226125836  -1.48e-07    8.42e-05      N
                     3   0.3229381909  -2.20e-07    3.36e-04      N
Iter=19   L=24    Root    EOM Energy     Delta E   Res. Norm    Conv?
                     1   0.2782128702  -1.82e-09    1.24e-06      N
                     2   0.3226128143   2.31e-07    5.29e-05      N
                     3   0.3229375848  -6.06e-07    3.29e-04      N
Iter=20   L=27    Root    EOM Energy     Delta E   Res. Norm    Conv?
                     1   0.2782128696  -6.00e-10    5.92e-07      Y
                     2   0.3226128528   3.85e-08    3.09e-05      N
                     3   0.3229385223   9.37e-07    3.23e-04      N
Iter=21   L=29    Root    EOM Energy     Delta E   Res. Norm    Conv?
                     1   0.2782128708   1.22e-09    4.70e-07      Y
                     2   0.3226128254  -2.74e-08    1.62e-05      N
                     3   0.3229377536  -7.69e-07    2.45e-04      N
Iter=22   L=31    Root    EOM Energy     Delta E   Res. Norm    Conv?
                     1   0.2782128704  -3.58e-10    4.33e-07      Y
                     2   0.3226127891  -3.63e-08    7.66e-06      N
                     3   0.3229377189  -3.47e-08    1.26e-04      N
Iter=23   L=33    Root    EOM Energy     Delta E   Res. Norm    Conv?
                     1   0.2782128705   2.87e-11    4.21e-07      Y
                     2   0.3226128031   1.40e-08    3.57e-06      N
                     3   0.3229376594  -5.95e-08    6.30e-05      N
Iter=24   L=35    Root    EOM Energy     Delta E   Res. Norm    Conv?
                     1   0.2782128704  -1.93e-11    4.20e-07      Y
                     2   0.3226127908  -1.23e-08    1.83e-06      N
                     3   0.3229376952   3.58e-08    3.79e-05      N
Iter=25   L=37    Root    EOM Energy     Delta E   Res. Norm    Conv?
                     1   0.2782128705   2.72e-11    4.20e-07      Y
                     2   0.3226127947   3.95e-09    1.02e-06      N
                     3   0.3229377160   2.08e-08    2.32e-05      N
Iter=26   L=6     Root    EOM Energy     Delta E   Res. Norm    Conv?
                     1   0.2782128705   2.91e-11    4.26e-07      Y
                     2   0.3226127947   7.53e-13    1.02e-06      N
                     3   0.3229377160  -1.72e-15    2.32e-05      N
Iter=27   L=8     Root    EOM Energy     Delta E   Res. Norm    Conv?
                     1   0.2782128705   1.98e-11    4.26e-07      Y
                     2   0.3226127960   1.23e-09    4.95e-07      Y
                     3   0.3229377229   6.89e-09    1.52e-05      N
Iter=28   L=9     Root    EOM Energy     Delta E   Res. Norm    Conv?
                     1   0.2782128705   5.55e-17    4.26e-07      Y
                     2   0.3226127960   5.55e-17    4.95e-07      Y
                     3   0.3229377057  -1.72e-08    9.46e-06      N
Iter=29   L=10    Root    EOM Energy     Delta E   Res. Norm    Conv?
                     1   0.2782128705  -6.66e-16    4.26e-07      Y
                     2   0.3226127960   1.67e-16    4.95e-07      Y
                     3   0.3229377086   2.86e-09    5.41e-06      N
Iter=30   L=11    Root    EOM Energy     Delta E   Res. Norm    Conv?
                     1   0.2782128705   3.89e-16    4.26e-07      Y
                     2   0.3226127960  -2.78e-16    4.95e-07      Y
                     3   0.3229377117   3.13e-09    4.10e-06      N
Iter=31   L=12    Root    EOM Energy     Delta E   Res. Norm    Conv?
                     1   0.2782128705  -2.22e-16    4.26e-07      Y
                     2   0.3226127960   1.11e-16    4.95e-07      Y
                     3   0.3229376877  -2.40e-08    4.17e-06      N
Iter=32   L=13    Root    EOM Energy     Delta E   Res. Norm    Conv?
                     1   0.2782128705   5.55e-17    4.26e-07      Y
                     2   0.3226127960  -3.89e-16    4.95e-07      Y
                     3   0.3229377016   1.40e-08    3.69e-06      N
Iter=33   L=14    Root    EOM Energy     Delta E   Res. Norm    Conv?
                     1   0.2782128705   6.11e-16    4.26e-07      Y
                     2   0.3226127960   8.33e-16    4.95e-07      Y
                     3   0.3229376959  -5.74e-09    2.22e-06      N
Iter=34   L=15    Root    EOM Energy     Delta E   Res. Norm    Conv?
                     1   0.2782128705  -4.44e-16    4.26e-07      Y
                     2   0.3226127960  -3.33e-16    4.95e-07      Y
                     3   0.3229376923  -3.59e-09    1.48e-06      N
Iter=35   L=16    Root    EOM Energy     Delta E   Res. Norm    Conv?
                     1   0.2782128705  -2.78e-16    4.26e-07      Y
                     2   0.3226127960  -3.89e-16    4.95e-07      Y
                     3   0.3229376970   4.67e-09    1.12e-06      N
Iter=36   L=17    Root    EOM Energy     Delta E   Res. Norm    Conv?
                     1   0.2782128705   2.22e-16    4.26e-07      Y
                     2   0.3226127960   7.22e-16    4.95e-07      Y
                     3   0.3229376946  -2.40e-09    8.29e-07      Y
Collapsing to only 3 vector(s).

Procedure converged for 3 root(s).
<R|R> =   0.9999999999999999
EOM CCSD R0 for root 0 =   0.00000000000
<R|R> =   1.0000000000000002
EOM CCSD R0 for root 1 =   0.00000000000
<R|R> =   1.0000000000000000
EOM CCSD R0 for root 2 =   0.00000000000

Final Energetic Summary for Converged Roots of Irrep B1g
                     Excitation Energy              Total Energy
                (eV)     (cm^-1)     (au)             (au)
EOM State 4      7.571    61060.7   0.2782128705  -231.313803290547

Largest components of excited wave function #4:
 RIA (libdpd indices) : (cscf notation)
         0 >   0      :      1b1u >    1au :    0.5037117209
         0 >   2      :      1b3g >   4b2g :   -0.3136283976
         0 >   1      :      1b1u >    2au :    0.2428596383
         0 >   1      :      1b3g >   3b2g :   -0.1471654576
         0 >   4      :      1b3g >   6b2g :   -0.0890354984
 Ria (libdpd indices) : (cscf notation)
         0 >   0      :      1b1u >    1au :   -0.5037117209
         0 >   2      :      1b3g >   4b2g :    0.3136283976
         0 >   1      :      1b1u >    2au :   -0.2428596383
         0 >   1      :      1b3g >   3b2g :    0.1471654576
         0 >   4      :      1b3g >   6b2g :    0.0890354984
 RIjAb (libdpd indices)     : (cscf notation)
        0   0 >   0   0     :   1b2g   1b2g >    1au   2b1u :    0.0608137518
        0   0 >   0   0     :   1b2g   1b2g >   2b1u    1au :   -0.0608137518
        0   0 >   0   0     :   1b3g   1b3g >    1au   2b1u :   -0.0608132778
        0   0 >   0   0     :   1b3g   1b3g >   2b1u    1au :    0.0608132778
        0   0 >   0   0     :   1b2g   1b3g >   2b1u   2b1u :   -0.0426425014
 RIJAB (libdpd indices)     : (cscf notation)
        2   0 >   0   7     :   3b2u   1b2g >    1au  11b1g :   -0.0066505582
        0   0 >   0   2     :   1b1u   1b2g >   2b1u   4b3g :    0.0062586941
        0   0 >   0   2     :   1b1u   1b3g >    1au   4b3g :    0.0062586505
        0   2 >   8   0     :   1b2g   3b1g >  13b2u    1au :   -0.0059628400
        0   5 >  10   0     :   1b2g    6ag >  16b3u    1au :    0.0057384357
 Rijab (libdpd indices)     : (cscf notation)
        2   0 >   0   7     :   3b2u   1b2g >    1au  11b1g :    0.0066505582
        0   0 >   0   2     :   1b1u   1b2g >   2b1u   4b3g :   -0.0062586941
        0   0 >   0   2     :   1b1u   1b3g >    1au   4b3g :   -0.0062586505
        0   2 >   8   0     :   1b2g   3b1g >  13b2u    1au :    0.0059628400
        0   5 >  10   0     :   1b2g    6ag >  16b3u    1au :   -0.0057384357
EOM State 5      8.779    70805.3   0.3226127960  -231.269403365113

Largest components of excited wave function #5:
 RIA (libdpd indices) : (cscf notation)
         0 >   0      :      1b2g >   2b3g :    0.4726983175
         0 >   0      :      1b3g >   2b2g :   -0.4726109203
         0 >   0      :      1b1u >    1au :    0.0896658406
         0 >   1      :      1b2g >   3b3g :   -0.0440709493
         0 >   3      :      1b3g >   5b2g :   -0.0440640811
 Ria (libdpd indices) : (cscf notation)
         0 >   0      :      1b2g >   2b3g :   -0.4726983175
         0 >   0      :      1b3g >   2b2g :    0.4726109203
         0 >   0      :      1b1u >    1au :   -0.0896658406
         0 >   1      :      1b2g >   3b3g :    0.0440709493
         0 >   3      :      1b3g >   5b2g :    0.0440640811
 RIjAb (libdpd indices)     : (cscf notation)
        0   0 >   0   0     :   1b2g   1b1u >    1au   2b2g :    0.0310619831
        0   0 >   0   0     :   1b1u   1b2g >   2b2g    1au :   -0.0310619831
        0   0 >   0   0     :   1b3g   1b1u >    1au   2b3g :   -0.0299584311
        0   0 >   0   0     :   1b1u   1b3g >   2b3g    1au :    0.0299584311
        0   0 >   0   0     :   1b2g   1b1u >   2b1u   2b3g :   -0.0252943124
 RIJAB (libdpd indices)     : (cscf notation)
        0   0 >   1   0     :   1b3g   1b2g >   3b1u   2b1u :    0.0184092851
        0   0 >   0   0     :   1b1u   1b2g >    1au   2b2g :    0.0150194617
        0   0 >   0   0     :   1b1u   1b3g >    1au   2b3g :   -0.0147982011
        0   0 >   2   1     :   1b3g   1b2g >   4b1u   3b1u :   -0.0112405940
        0   0 >   0   0     :   1b1u   1b2g >   2b1u   2b3g :   -0.0102169109
 Rijab (libdpd indices)     : (cscf notation)
        0   0 >   1   0     :   1b3g   1b2g >   3b1u   2b1u :   -0.0184092851
        0   0 >   0   0     :   1b1u   1b2g >    1au   2b2g :   -0.0150194617
        0   0 >   0   0     :   1b1u   1b3g >    1au   2b3g :    0.0147982011
        0   0 >   2   1     :   1b3g   1b2g >   4b1u   3b1u :    0.0112405940
        0   0 >   0   0     :   1b1u   1b2g >   2b1u   2b3g :    0.0102169109
EOM State 6      8.788    70876.6   0.3229376946  -231.269078466502

Largest components of excited wave function #6:
 RIA (libdpd indices) : (cscf notation)
         0 >   0      :      1b2g >   2b3g :    0.4442955873
         0 >   0      :      1b3g >   2b2g :   -0.4441962698
         0 >   0      :      1b1u >    1au :    0.2371252203
         0 >   1      :      1b1u >    2au :    0.0527402813
         0 >   1      :      1b2g >   3b3g :   -0.0389875701
 Ria (libdpd indices) : (cscf notation)
         0 >   0      :      1b2g >   2b3g :    0.4442955873
         0 >   0      :      1b3g >   2b2g :   -0.4441962697
         0 >   0      :      1b1u >    1au :    0.2371252203
         0 >   1      :      1b1u >    2au :    0.0527402813
         0 >   1      :      1b2g >   3b3g :   -0.0389875701
 RIjAb (libdpd indices)     : (cscf notation)
        0   0 >   0   0     :   1b2g   1b3g >    1au    1au :    0.0476650644
        0   0 >   0   0     :   1b3g   1b2g >    1au    1au :    0.0476650644
        0   0 >   0   0     :   1b3g   1b3g >    1au   2b1u :   -0.0336502655
        0   0 >   0   0     :   1b3g   1b3g >   2b1u    1au :   -0.0336502655
        0   0 >   1   0     :   1b2g   1b3g >    2au    1au :    0.0312729305
 RIJAB (libdpd indices)     : (cscf notation)
        0   0 >   1   0     :   1b3g   1b2g >   3b1u   2b1u :    0.0181418257
        0   0 >   0   0     :   1b1u   1b3g >    1au   2b3g :   -0.0151697386
        0   0 >   0   0     :   1b1u   1b2g >    1au   2b2g :    0.0147898847
        0   0 >   2   1     :   1b3g   1b2g >   4b1u   3b1u :   -0.0113079341
        0   0 >   0   0     :   1b1u   1b3g >   2b1u   2b2g :   -0.0095271994
 Rijab (libdpd indices)     : (cscf notation)
        0   0 >   1   0     :   1b3g   1b2g >   3b1u   2b1u :    0.0181418257
        0   0 >   0   0     :   1b1u   1b3g >    1au   2b3g :   -0.0151697386
        0   0 >   0   0     :   1b1u   1b2g >    1au   2b2g :    0.0147898847
        0   0 >   2   1     :   1b3g   1b2g >   4b1u   3b1u :   -0.0113079341
        0   0 >   0   0     :   1b1u   1b3g >   2b1u   2b2g :   -0.0095271994

Symmetry of excited state: B2g
Symmetry of right eigenvector: B2g
Obtaining initial guess from singles-singles block of Hbar...Done.

Iter=1    L=3     Root    EOM Energy     Delta E   Res. Norm    Conv?
                     1   0.3209976500   3.21e-01    3.29e-01      N
                     2   0.3252750742   3.25e-01    3.30e-01      N
                     3   0.3677653790   3.68e-01    3.23e-01      N
Iter=2    L=6     Root    EOM Energy     Delta E   Res. Norm    Conv?
                     1   0.2387659381  -8.22e-02    5.62e-02      N
                     2   0.2410014824  -8.43e-02    5.68e-02      N
                     3   0.2842680013  -8.35e-02    5.38e-02      N
Iter=3    L=9     Root    EOM Energy     Delta E   Res. Norm    Conv?
                     1   0.2357168049  -3.05e-03    2.83e-02      N
                     2   0.2378693812  -3.13e-03    2.87e-02      N
                     3   0.2815594854  -2.71e-03    2.40e-02      N
Iter=4    L=12    Root    EOM Energy     Delta E   Res. Norm    Conv?
                     1   0.2348885902  -8.28e-04    1.42e-02      N
                     2   0.2370230368  -8.46e-04    1.46e-02      N
                     3   0.2809347859  -6.25e-04    1.28e-02      N
Iter=5    L=15    Root    EOM Energy     Delta E   Res. Norm    Conv?
                     1   0.2345909591  -2.98e-04    9.84e-03      N
                     2   0.2367236746  -2.99e-04    9.54e-03      N
                     3   0.2806935527  -2.41e-04    8.65e-03      N
Iter=6    L=18    Root    EOM Energy     Delta E   Res. Norm    Conv?
                     1   0.2344965303  -9.44e-05    5.54e-03      N
                     2   0.2366370959  -8.66e-05    5.17e-03      N
                     3   0.2806217788  -7.18e-05    4.02e-03      N
Iter=7    L=21    Root    EOM Energy     Delta E   Res. Norm    Conv?
                     1   0.2344787711  -1.78e-05    2.93e-03      N
                     2   0.2366236329  -1.35e-05    2.85e-03      N
                     3   0.2806236142   1.84e-06    1.72e-03      N
Iter=8    L=24    Root    EOM Energy     Delta E   Res. Norm    Conv?
                     1   0.2344673375  -1.14e-05    1.81e-03      N
                     2   0.2366134983  -1.01e-05    1.98e-03      N
                     3   0.2806183373  -5.28e-06    8.37e-04      N
Iter=9    L=27  
Sum of complex part of HBar eigenvalues    0.000978211929805,   1.00e-12
  Root    EOM Energy     Delta E   Res. Norm    Conv?
                     1   0.2344579679  -9.37e-06    7.56e-04      N
                     2   0.2366017166  -1.18e-05    9.14e-04      N
                     3   0.2806153408  -3.00e-06    3.08e-04      N
Iter=10   L=30    Root    EOM Energy     Delta E   Res. Norm    Conv?
                     1   0.2344583618   3.94e-07    2.77e-04      N
                     2   0.2366015629  -1.54e-07    3.57e-04      N
                     3   0.2806155887   2.48e-07    1.05e-04      N
Iter=11   L=33    Root    EOM Energy     Delta E   Res. Norm    Conv?
                     1   0.2344581678  -1.94e-07    1.31e-04      N
                     2   0.2366016632   1.00e-07    1.94e-04      N
                     3   0.2806157137   1.25e-07    5.20e-05      N
Iter=12   L=36    Root    EOM Energy     Delta E   Res. Norm    Conv?
                     1   0.2344581151  -5.27e-08    5.98e-05      N
                     2   0.2366013279  -3.35e-07    1.08e-04      N
                     3   0.2806157074  -6.24e-09    3.68e-05      N
Iter=13   L=6     Root    EOM Energy     Delta E   Res. Norm    Conv?
                     1   0.2344581151   8.33e-17    5.98e-05      N
                     2   0.2366013279  -3.33e-16    1.08e-04      N
                     3   0.2806157074  -1.11e-16    3.68e-05      N
Iter=14   L=9     Root    EOM Energy     Delta E   Res. Norm    Conv?
                     1   0.2344581413   2.62e-08    2.84e-05      N
                     2   0.2366012349  -9.30e-08    6.91e-05      N
                     3   0.2806157363   2.88e-08    2.28e-05      N
Iter=15   L=12    Root    EOM Energy     Delta E   Res. Norm    Conv?
                     1   0.2344580303  -1.11e-07    1.52e-05      N
                     2   0.2366012581   2.32e-08    4.23e-05      N
                     3   0.2806157941   5.79e-08    1.36e-05      N
Iter=16   L=15    Root    EOM Energy     Delta E   Res. Norm    Conv?
                     1   0.2344580805   5.02e-08    8.25e-06      N
                     2   0.2366012086  -4.95e-08    2.33e-05      N
                     3   0.2806157207  -7.34e-08    6.57e-06      N
Iter=17   L=18    Root    EOM Energy     Delta E   Res. Norm    Conv?
                     1   0.2344580437  -3.68e-08    5.45e-06      N
                     2   0.2366012679   5.93e-08    1.16e-05      N
                     3   0.2806157540   3.33e-08    3.85e-06      N
Iter=18   L=21    Root    EOM Energy     Delta E   Res. Norm    Conv?
                     1   0.2344580553   1.16e-08    3.30e-06      N
                     2   0.2366012438  -2.41e-08    5.40e-06      N
                     3   0.2806157130  -4.11e-08    4.07e-06      N
Iter=19   L=24    Root    EOM Energy     Delta E   Res. Norm    Conv?
                     1   0.2344580583   2.99e-09    1.58e-06      N
                     2   0.2366012591   1.53e-08    2.17e-06      N
                     3   0.2806157610   4.80e-08    5.64e-06      N
Iter=20   L=27    Root    EOM Energy     Delta E   Res. Norm    Conv?
                     1   0.2344580602   1.94e-09    6.50e-07      Y
                     2   0.2366012632   4.05e-09    8.48e-07      Y
                     3   0.2806156929  -6.81e-08    7.63e-06      N
Iter=21   L=28    Root    EOM Energy     Delta E   Res. Norm    Conv?
                     1   0.2344580587  -1.54e-09    4.25e-07      Y
                     2   0.2366012632   1.11e-16    8.48e-07      Y
                     3   0.2806157525   5.96e-08    8.23e-06      N
Iter=22   L=29    Root    EOM Energy     Delta E   Res. Norm    Conv?
                     1   0.2344580592   5.24e-10    3.91e-07      Y
                     2   0.2366012632   2.78e-17    8.48e-07      Y
                     3   0.2806157145  -3.79e-08    6.29e-06      N
Iter=23   L=30    Root    EOM Energy     Delta E   Res. Norm    Conv?
                     1   0.2344580590  -2.00e-10    3.86e-07      Y
                     2   0.2366012632   0.00e+00    8.48e-07      Y
                     3   0.2806157386   2.41e-08    5.18e-06      N
Iter=24   L=31    Root    EOM Energy     Delta E   Res. Norm    Conv?
                     1   0.2344580588  -2.60e-10    3.92e-07      Y
                     2   0.2366012632   2.22e-16    8.48e-07      Y
                     3   0.2806157459   7.25e-09    6.12e-06      N
Iter=25   L=32    Root    EOM Energy     Delta E   Res. Norm    Conv?
                     1   0.2344580595   7.18e-10    3.94e-07      Y
                     2   0.2366012632  -3.89e-16    8.48e-07      Y
                     3   0.2806157079  -3.80e-08    6.88e-06      N
Iter=26   L=33    Root    EOM Energy     Delta E   Res. Norm    Conv?
                     1   0.2344580583  -1.19e-09    3.90e-07      Y
                     2   0.2366012632   5.00e-16    8.48e-07      Y
                     3   0.2806157746   6.67e-08    7.09e-06      N
Iter=27   L=34    Root    EOM Energy     Delta E   Res. Norm    Conv?
                     1   0.2344580595   1.22e-09    3.75e-07      Y
                     2   0.2366012632  -4.16e-16    8.48e-07      Y
                     3   0.2806157113  -6.34e-08    4.59e-06      N
Iter=28   L=35    Root    EOM Energy     Delta E   Res. Norm    Conv?
                     1   0.2344580584  -1.13e-09    3.67e-07      Y
                     2   0.2366012632   6.38e-16    8.48e-07      Y
                     3   0.2806157434   3.22e-08    2.86e-06      N
Iter=29   L=36    Root    EOM Energy     Delta E   Res. Norm    Conv?
                     1   0.2344580591   6.87e-10    3.58e-07      Y
                     2   0.2366012632  -7.22e-16    8.48e-07      Y
                     3   0.2806157295  -1.39e-08    1.53e-06      N
Iter=30   L=6     Root    EOM Energy     Delta E   Res. Norm    Conv?
                     1   0.2344580590  -3.41e-11    3.60e-07      Y
                     2   0.2350113032  -1.59e-03    3.29e-02      N
                     3   0.2806157295  -1.26e-13    1.53e-06      N
Iter=31   L=8     Root    EOM Energy     Delta E   Res. Norm    Conv?
                     1   0.2344580588  -2.68e-10    3.93e-07      Y
                     2   0.2345224087  -4.89e-04    2.15e-02      N
                     3   0.2806157328   3.28e-09    7.40e-07      Y
Iter=32   L=9     Root    EOM Energy     Delta E   Res. Norm    Conv?
                     1   0.2342094589  -2.49e-04    2.51e-02      N
                     2   0.2344580585  -6.44e-05    3.45e-07      N
                     3   0.2806157327  -9.73e-11    7.36e-07      Y
Iter=33   L=11    Root    EOM Energy     Delta E   Res. Norm    Conv?
                     1   0.2337250147  -4.84e-04    3.15e-02      N
                     2   0.2344580586   4.93e-11    1.33e-07      Y
                     3   0.2806157333   5.65e-10    7.40e-07      Y
Iter=34   L=12    Root    EOM Energy     Delta E   Res. Norm    Conv?
                     1   0.2316563602  -2.07e-03    6.57e-02      N
                     2   0.2344580586  -2.09e-11    1.33e-07      Y
                     3   0.2732956969  -7.32e-03    1.80e-01      N
Iter=35   L=14    Root    EOM Energy     Delta E   Res. Norm    Conv?
                     1   0.1678876352  -6.38e-02    3.10e-01      N
                     2   0.2344580586   3.12e-11    1.34e-07      Y
                     3   0.2386336260  -3.47e-02    5.41e-02      N
Iter=36   L=16    Root    EOM Energy     Delta E   Res. Norm    Conv?
                     1   0.0224024904  -1.45e-01    1.88e-01      N
                     2   0.2344580585  -5.76e-11    1.33e-07      Y
                     3   0.2370080132  -1.63e-03    1.42e-02      N
Iter=37   L=18    Root    EOM Energy     Delta E   Res. Norm    Conv?
                     1   0.0012186082  -2.12e-02    4.68e-02      N
                     2   0.2344580585   6.44e-12    1.32e-07      Y
                     3   0.2368828147  -1.25e-04    6.14e-03      N
Iter=38   L=20    Root    EOM Energy     Delta E   Res. Norm    Conv?
                     1   0.0000837250  -1.13e-03    1.10e-02      N
                     2   0.2344580586   1.44e-11    1.32e-07      Y
                     3   0.2369349924   5.22e-05    5.15e-03      N
Iter=39   L=22    Root    EOM Energy     Delta E   Res. Norm    Conv?
                     1   0.0000081393  -7.56e-05    3.63e-03      N
                     2   0.2344580585  -1.44e-11    1.32e-07      Y
                     3   0.2369274795  -7.51e-06    4.97e-03      N
Iter=40   L=24    Root    EOM Energy     Delta E   Res. Norm    Conv?
                     1   0.0000007580  -7.38e-06    1.07e-03      N
                     2   0.2344580585  -1.41e-11    1.32e-07      Y
                     3   0.2369274332  -4.63e-08    4.96e-03      N
Iter=41   L=26    Root    EOM Energy     Delta E   Res. Norm    Conv?
                     1   0.0000000811  -6.77e-07    3.41e-04      N
                     2   0.2344580585   1.99e-11    1.32e-07      Y
                     3   0.2369268303  -6.03e-07    4.94e-03      N
Iter=42   L=28    Root    EOM Energy     Delta E   Res. Norm    Conv?
                     1   0.0000000086  -7.25e-08    1.17e-04      N
                     2   0.2344580585  -7.15e-13    1.32e-07      Y
                     3   0.2369265217  -3.09e-07    4.95e-03      N
Iter=43   L=30    Root    EOM Energy     Delta E   Res. Norm    Conv?
                     1   0.0000000008  -7.82e-09    3.58e-05      N
                     2   0.2344580585   4.13e-12    1.32e-07      Y
                     3   0.2369266343   1.13e-07    4.95e-03      N
Iter=44   L=32    Root    EOM Energy     Delta E   Res. Norm    Conv?
                     1   0.0000000001  -7.44e-10    1.11e-05      N
                     2   0.2344580585  -5.42e-11    1.32e-07      Y
[...]
                     3   0.2100018745   9.07e-09    5.01e-06      N
Iter=12   L=36    Root    EOM Energy     Delta E   Res. Norm    Conv?
                     1   0.1772230875  -4.81e-08    7.64e-06      N
                     2   0.1864739020  -2.79e-09    2.85e-06      N
                     3   0.2100018788   4.35e-09    1.82e-06      N
Iter=13   L=6     Root    EOM Energy     Delta E   Res. Norm    Conv?
                     1   0.1772230875   7.94e-15    7.64e-06      N
                     2   0.1864739020  -1.78e-15    2.85e-06      N
                     3   0.2100018788   1.53e-14    1.82e-06      N
Iter=14   L=9     Root    EOM Energy     Delta E   Res. Norm    Conv?
                     1   0.1772230827  -4.76e-09    2.66e-06      N
                     2   0.1864739009  -1.03e-09    1.26e-06      N
                     3   0.2100018781  -7.26e-10    6.66e-07      Y
Iter=15   L=11    Root    EOM Energy     Delta E   Res. Norm    Conv?
                     1   0.1772230796  -3.09e-09    9.84e-07      Y
                     2   0.1864738991  -1.87e-09    4.80e-07      Y
                     3   0.2100018781   2.50e-16    6.66e-07      Y
Collapsing to only 3 vector(s).

Procedure converged for 3 root(s).
<R|R> =   1.0000000000000002
EOM CCSD R0 for root 0 =   0.00000000000
<R|R> =   1.0000000000000002
EOM CCSD R0 for root 1 =   0.00000000000
<R|R> =   1.0000000000000002
EOM CCSD R0 for root 2 =   0.00000000000

Final Energetic Summary for Converged Roots of Irrep B2u
                     Excitation Energy              Total Energy
                (eV)     (cm^-1)     (au)             (au)
EOM State 18      4.822    38896.0   0.1772230796  -231.414793081455

Largest components of excited wave function #18:
 RIA (libdpd indices) : (cscf notation)
         0 >   0      :      1b2g >    1au :   -0.4341973655
         0 >   0      :      1b3g >   2b1u :    0.4341959439
         0 >   1      :      1b2g >    2au :   -0.1947506816
         0 >   2      :      1b3g >   4b1u :    0.1947485986
         0 >   4      :      1b3g >   6b1u :    0.0324878819
 Ria (libdpd indices) : (cscf notation)
         0 >   0      :      1b2g >    1au :    0.4341973655
         0 >   0      :      1b3g >   2b1u :   -0.4341959439
         0 >   1      :      1b2g >    2au :    0.1947506816
         0 >   2      :      1b3g >   4b1u :   -0.1947485986
         0 >   4      :      1b3g >   6b1u :   -0.0324878819
 RIjAb (libdpd indices)     : (cscf notation)
        0   0 >   0   0     :   1b2g   1b1u >    1au   2b1u :   -0.0565085168
        0   0 >   0   0     :   1b1u   1b2g >   2b1u    1au :    0.0565085168
        0   0 >   2   0     :   1b2g   1b3g >   4b2g   2b1u :    0.0540416957
        0   0 >   0   2     :   1b3g   1b2g >   2b1u   4b2g :   -0.0540416957
        0   0 >   2   0     :   1b3g   1b3g >   4b2g    1au :   -0.0349607788
 RIJAB (libdpd indices)     : (cscf notation)
        0   0 >   0   0     :   1b1u   1b2g >   2b1u    1au :    0.0232973578
        0   0 >   0   2     :   1b3g   1b2g >   2b1u   4b2g :    0.0227282755
        0   0 >   2   2     :   1b3g   1b2g >   4b1u   4b2g :    0.0135554594
        0   0 >   2   0     :   1b1u   1b2g >   4b1u    1au :    0.0123970928
        0   0 >   0   2     :   1b3g   1b2g >    1au   4b3g :    0.0113926992
 Rijab (libdpd indices)     : (cscf notation)
        0   0 >   0   0     :   1b1u   1b2g >   2b1u    1au :   -0.0232973578
        0   0 >   0   2     :   1b3g   1b2g >   2b1u   4b2g :   -0.0227282755
        0   0 >   2   2     :   1b3g   1b2g >   4b1u   4b2g :   -0.0135554594
        0   0 >   2   0     :   1b1u   1b2g >   4b1u    1au :   -0.0123970928
        0   0 >   0   2     :   1b3g   1b2g >    1au   4b3g :   -0.0113926992
EOM State 19      5.074    40926.3   0.1864738991  -231.405542262013

Largest components of excited wave function #19:
 RIA (libdpd indices) : (cscf notation)
         0 >   0      :      1b2g >    1au :   -0.4328480679
         0 >   0      :      1b3g >   2b1u :   -0.4328472287
         0 >   1      :      1b2g >    2au :   -0.1848224281
         0 >   2      :      1b3g >   4b1u :   -0.1848206845
         0 >   4      :      1b3g >   6b1u :   -0.0285224258
 Ria (libdpd indices) : (cscf notation)
         0 >   0      :      1b2g >    1au :   -0.4328480679
         0 >   0      :      1b3g >   2b1u :   -0.4328472287
         0 >   1      :      1b2g >    2au :   -0.1848224281
         0 >   2      :      1b3g >   4b1u :   -0.1848206845
         0 >   4      :      1b3g >   6b1u :   -0.0285224258
 RIjAb (libdpd indices)     : (cscf notation)
        0   0 >   0   0     :   1b2g   1b1u >    1au   2b1u :   -0.0460099677
        0   0 >   0   0     :   1b1u   1b2g >   2b1u    1au :   -0.0460099677
        0   0 >   0   0     :   1b2g   1b1u >   2b1u    1au :   -0.0460099547
        0   0 >   0   0     :   1b1u   1b2g >    1au   2b1u :   -0.0460099547
        0   0 >   0   0     :   1b3g   1b1u >   2b1u   2b1u :    0.0460098937
 RIJAB (libdpd indices)     : (cscf notation)
        2   0 >   0  11     :   3b2u   1b1u >   2b1u   18ag :   -0.0054462507
        2   0 >   0   7     :   3b2u   1b1u >    1au  11b1g :    0.0054459642
        2   0 >   2  11     :   3b2u   1b2g >   4b2g   18ag :   -0.0046877165
        2   0 >   2   7     :   3b2u   1b3g >   4b2g  11b1g :   -0.0046874436
        0   2 >  10   0     :   1b1u   3b1g >  16b3u   2b1u :   -0.0043362185
 Rijab (libdpd indices)     : (cscf notation)
        2   0 >   0  11     :   3b2u   1b1u >   2b1u   18ag :   -0.0054462507
        2   0 >   0   7     :   3b2u   1b1u >    1au  11b1g :    0.0054459642
        2   0 >   2  11     :   3b2u   1b2g >   4b2g   18ag :   -0.0046877165
        2   0 >   2   7     :   3b2u   1b3g >   4b2g  11b1g :   -0.0046874436
        0   2 >  10   0     :   1b1u   3b1g >  16b3u   2b1u :   -0.0043362185
EOM State 20      5.714    46090.1   0.2100018781  -231.382014282961

Largest components of excited wave function #20:
 RIA (libdpd indices) : (cscf notation)
         0 >   0      :      1b3g >   2b1u :    0.4500742325
         0 >   0      :      1b2g >    1au :    0.4500719364
         0 >   1      :      1b2g >    2au :    0.1749250564
         0 >   2      :      1b3g >   4b1u :    0.1749247315
         0 >   2      :      1b1u >   4b3g :    0.0320777367
 Ria (libdpd indices) : (cscf notation)
         0 >   0      :      1b3g >   2b1u :   -0.4500742325
         0 >   0      :      1b2g >    1au :   -0.4500719364
         0 >   1      :      1b2g >    2au :   -0.1749250564
         0 >   2      :      1b3g >   4b1u :   -0.1749247315
         0 >   2      :      1b1u >   4b3g :   -0.0320777367
 RIjAb (libdpd indices)     : (cscf notation)
        0   0 >   5   2     :   1b2g   1b3g >   7b1u   4b2g :    0.0105461518
        0   0 >   2   5     :   1b3g   1b2g >   4b2g   7b1u :   -0.0105461518
        0   0 >   2   5     :   1b2g   1b3g >   4b2g   7b1u :    0.0105460971
        0   0 >   5   2     :   1b3g   1b2g >   7b1u   4b2g :   -0.0105460971
        0   0 >   2   0     :   1b3g   1b3g >   4b3g   2b1u :    0.0105402615
 RIJAB (libdpd indices)     : (cscf notation)
        2   0 >   0  11     :   3b2u   1b1u >   2b1u   18ag :    0.0073218922
        2   0 >   0   7     :   3b2u   1b1u >    1au  11b1g :   -0.0073214487
        2   0 >   2  11     :   3b2u   1b2g >   4b2g   18ag :    0.0062525335
        2   0 >   2   7     :   3b2u   1b3g >   4b2g  11b1g :    0.0062522014
        0   2 >  10   0     :   1b1u   3b1g >  16b3u   2b1u :    0.0057788620
 Rijab (libdpd indices)     : (cscf notation)
        2   0 >   0  11     :   3b2u   1b1u >   2b1u   18ag :   -0.0073218922
        2   0 >   0   7     :   3b2u   1b1u >    1au  11b1g :    0.0073214487
        2   0 >   2  11     :   3b2u   1b2g >   4b2g   18ag :   -0.0062525335
        2   0 >   2   7     :   3b2u   1b3g >   4b2g  11b1g :   -0.0062522014
        0   2 >  10   0     :   1b1u   3b1g >  16b3u   2b1u :   -0.0057788620

Symmetry of excited state: B3u
Symmetry of right eigenvector: B3u
Obtaining initial guess from singles-singles block of Hbar...Done.

Iter=1    L=3     Root    EOM Energy     Delta E   Res. Norm    Conv?
                     1   0.2188843776   2.19e-01    3.98e-01      N
                     2   0.3009696083   3.01e-01    4.63e-01      N
                     3   0.3405545903   3.41e-01    4.32e-01      N
Iter=2    L=6     Root    EOM Energy     Delta E   Res. Norm    Conv?
                     1   0.1471463902  -7.17e-02    6.78e-02      N
                     2   0.1845710722  -1.16e-01    8.66e-02      N
                     3   0.2432116535  -9.73e-02    7.77e-02      N
Iter=3    L=9     Root    EOM Energy     Delta E   Res. Norm    Conv?
                     1   0.1435884835  -3.56e-03    4.08e-02      N
                     2   0.1786598748  -5.91e-03    4.16e-02      N
                     3   0.2385238514  -4.69e-03    4.50e-02      N
Iter=4    L=12    Root    EOM Energy     Delta E   Res. Norm    Conv?
                     1   0.1424987287  -1.09e-03    1.47e-02      N
                     2   0.1774003062  -1.26e-03    1.59e-02      N
                     3   0.2371211416  -1.40e-03    1.92e-02      N
Iter=5    L=15    Root    EOM Energy     Delta E   Res. Norm    Conv?
                     1   0.1423904838  -1.08e-04    4.25e-03      N
                     2   0.1772506270  -1.50e-04    5.62e-03      N
                     3   0.2368976562  -2.23e-04    6.77e-03      N
Iter=6    L=18    Root    EOM Energy     Delta E   Res. Norm    Conv?
                     1   0.1423802737  -1.02e-05    1.17e-03      N
                     2   0.1772297957  -2.08e-05    2.57e-03      N
                     3   0.2368737859  -2.39e-05    2.11e-03      N
Iter=7    L=21    Root    EOM Energy     Delta E   Res. Norm    Conv?
                     1   0.1423767001  -3.57e-06    3.33e-04      N
                     2   0.1772265079  -3.29e-06    1.27e-03      N
                     3   0.2368726619  -1.12e-06    1.01e-03      N
Iter=8    L=24    Root    EOM Energy     Delta E   Res. Norm    Conv?
                     1   0.1423764693  -2.31e-07    9.96e-05      N
                     2   0.1772247842  -1.72e-06    5.28e-04      N
                     3   0.2368791794   6.52e-06    4.72e-04      N
Iter=9    L=27    Root    EOM Energy     Delta E   Res. Norm    Conv?
                     1   0.1423763921  -7.72e-08    3.70e-05      N
                     2   0.1772234777  -1.31e-06    1.99e-04      N
                     3   0.2368800250   8.46e-07    1.94e-04      N
Iter=10   L=30    Root    EOM Energy     Delta E   Res. Norm    Conv?
                     1   0.1423763982   6.16e-09    1.51e-05      N
                     2   0.1772232141  -2.64e-07    6.73e-05      N
                     3   0.2368796755  -3.49e-07    7.05e-05      N
Iter=11   L=33    Root    EOM Energy     Delta E   Res. Norm    Conv?
                     1   0.1423764263   2.80e-08    5.23e-06      N
                     2   0.1772230931  -1.21e-07    2.29e-05      N
                     3   0.2368796728  -2.76e-09    2.67e-05      N
Iter=12   L=36    Root    EOM Energy     Delta E   Res. Norm    Conv?
                     1   0.1423764349   8.66e-09    1.87e-06      N
                     2   0.1772230450  -4.81e-08    7.64e-06      N
                     3   0.2368796287  -4.41e-08    1.34e-05      N
Iter=13   L=6     Root    EOM Energy     Delta E   Res. Norm    Conv?
                     1   0.1423764349   7.19e-15    1.87e-06      N
                     2   0.1772230450  -4.80e-15    7.64e-06      N
                     3   0.2368796287  -1.75e-15    1.34e-05      N
Iter=14   L=9     Root    EOM Energy     Delta E   Res. Norm    Conv?
                     1   0.1423764353   3.38e-10    6.76e-07      Y
                     2   0.1772230402  -4.76e-09    2.66e-06      N
                     3   0.2368795893  -3.93e-08    7.41e-06      N
Iter=15   L=11    Root    EOM Energy     Delta E   Res. Norm    Conv?
                     1   0.1423764353  -3.89e-16    6.76e-07      Y
                     2   0.1772230371  -3.09e-09    9.84e-07      Y
                     3   0.2368795692  -2.01e-08    3.29e-06      N
Iter=16   L=12    Root    EOM Energy     Delta E   Res. Norm    Conv?
                     1   0.1423764353   5.55e-16    6.76e-07      Y
                     2   0.1772230371   8.33e-17    9.84e-07      Y
                     3   0.2368795788   9.59e-09    1.16e-06      N
Iter=17   L=13    Root    EOM Energy     Delta E   Res. Norm    Conv?
                     1   0.1423764353  -3.05e-16    6.76e-07      Y
                     2   0.1772230371  -8.33e-17    9.84e-07      Y
                     3   0.2368795796   8.10e-10    4.03e-07      Y
Collapsing to only 3 vector(s).

Procedure converged for 3 root(s).
Energy written to CC_INFO:Etot -231.3551365815
States per irrep written to CC_INFO.
<R|R> =   1.0000000000000000
EOM CCSD R0 for root 0 =   0.00000000000
<R|R> =   1.0000000000000000
EOM CCSD R0 for root 1 =   0.00000000000
<R|R> =   1.0000000000000000
EOM CCSD R0 for root 2 =   0.00000000000

Final Energetic Summary for Converged Roots of Irrep B3u
                     Excitation Energy              Total Energy
                (eV)     (cm^-1)     (au)             (au)
EOM State 21      3.874    31248.0   0.1423764353  -231.449639725813

Largest components of excited wave function #21:
 RIA (libdpd indices) : (cscf notation)
         0 >   0      :      1b2g >   2b1u :    0.4264775978
         0 >   0      :      1b3g >    1au :   -0.4264584709
         0 >   2      :      1b2g >   4b1u :    0.2100404350
         0 >   1      :      1b3g >    2au :   -0.2100333685
         0 >   2      :      1b1u >   4b2g :    0.1132833090
 Ria (libdpd indices) : (cscf notation)
         0 >   0      :      1b2g >   2b1u :   -0.4264775978
         0 >   0      :      1b3g >    1au :    0.4264584709
         0 >   2      :      1b2g >   4b1u :   -0.2100404350
         0 >   1      :      1b3g >    2au :    0.2100333685
         0 >   2      :      1b1u >   4b2g :   -0.1132833090
 RIjAb (libdpd indices)     : (cscf notation)
        0   0 >   2   0     :   1b2g   1b2g >   4b2g   2b1u :   -0.0190204381
        0   0 >   0   2     :   1b2g   1b2g >   2b1u   4b2g :    0.0190204381
        0   0 >   2   0     :   1b2g   1b3g >   4b2g    1au :   -0.0190198850
        0   0 >   0   2     :   1b3g   1b2g >    1au   4b2g :    0.0190198850
        0   0 >   2   0     :   1b3g   1b3g >   4b2g   2b1u :    0.0190198489
 RIJAB (libdpd indices)     : (cscf notation)
        2   0 >   0  11     :   3b2u   1b1u >    1au   18ag :   -0.0046939368
        2   0 >   0   7     :   3b2u   1b1u >   2b1u  11b1g :   -0.0046939267
        2   0 >   2   7     :   3b2u   1b2g >   4b2g  11b1g :    0.0041020853
        2   0 >   2  11     :   3b2u   1b3g >   4b2g   18ag :   -0.0041020830
        0   2 >   8   0     :   1b1u   3b1g >  13b2u   2b1u :   -0.0037449296
 Rijab (libdpd indices)     : (cscf notation)
        2   0 >   0  11     :   3b2u   1b1u >    1au   18ag :    0.0046939368
        2   0 >   0   7     :   3b2u   1b1u >   2b1u  11b1g :    0.0046939267
        2   0 >   2   7     :   3b2u   1b2g >   4b2g  11b1g :   -0.0041020853
        2   0 >   2  11     :   3b2u   1b3g >   4b2g   18ag :    0.0041020830
        0   2 >   8   0     :   1b1u   3b1g >  13b2u   2b1u :    0.0037449296
EOM State 22      4.822    38896.0   0.1772230371  -231.414793123937

Largest components of excited wave function #22:
 RIA (libdpd indices) : (cscf notation)
         0 >   0      :      1b3g >    1au :    0.4342051594
         0 >   0      :      1b2g >   2b1u :    0.4341882196
         0 >   1      :      1b3g >    2au :    0.1947547549
         0 >   2      :      1b2g >   4b1u :    0.1947446886
         0 >   2      :      1b3g >    3au :    0.0324883634
 Ria (libdpd indices) : (cscf notation)
         0 >   0      :      1b3g >    1au :   -0.4342051594
         0 >   0      :      1b2g >   2b1u :   -0.4341882196
         0 >   1      :      1b3g >    2au :   -0.1947547549
         0 >   2      :      1b2g >   4b1u :   -0.1947446886
         0 >   2      :      1b3g >    3au :   -0.0324883634
 RIjAb (libdpd indices)     : (cscf notation)
        0   0 >   0   0     :   1b3g   1b1u >   2b1u    1au :    0.0565086516
        0   0 >   0   0     :   1b1u   1b3g >    1au   2b1u :   -0.0565086516
        0   0 >   0   2     :   1b2g   1b3g >    1au   4b2g :   -0.0540418478
        0   0 >   2   0     :   1b3g   1b2g >   4b2g    1au :    0.0540418478
        0   0 >   2   0     :   1b2g   1b2g >   4b2g   2b1u :   -0.0349606669
 RIJAB (libdpd indices)     : (cscf notation)
        0   0 >   0   0     :   1b1u   1b3g >   2b1u    1au :    0.0232973478
        0   0 >   0   2     :   1b3g   1b2g >    1au   4b2g :   -0.0227282144
        0   0 >   1   2     :   1b3g   1b2g >    2au   4b2g :   -0.0135555398
        0   0 >   0   1     :   1b1u   1b3g >   2b1u    2au :    0.0123971458
        0   0 >   0   2     :   1b3g   1b2g >   2b1u   4b3g :    0.0113927780
 Rijab (libdpd indices)     : (cscf notation)
        0   0 >   0   0     :   1b1u   1b3g >   2b1u    1au :   -0.0232973478
        0   0 >   0   2     :   1b3g   1b2g >    1au   4b2g :    0.0227282144
        0   0 >   1   2     :   1b3g   1b2g >    2au   4b2g :    0.0135555398
        0   0 >   0   1     :   1b1u   1b3g >   2b1u    2au :   -0.0123971458
        0   0 >   0   2     :   1b3g   1b2g >   2b1u   4b3g :   -0.0113927780
EOM State 23      6.446    51989.1   0.2368795796  -231.355136581489

Largest components of excited wave function #23:
 RIA (libdpd indices) : (cscf notation)
         0 >   0      :      1b2g >   2b1u :   -0.4570935301
         0 >   0      :      1b3g >    1au :    0.4570770656
         0 >   2      :      1b2g >   4b1u :   -0.1457378782
         0 >   1      :      1b3g >    2au :    0.1457351268
         2 >  11      :      3b2u >  15b1g :    0.0248928250
 Ria (libdpd indices) : (cscf notation)
         0 >   0      :      1b2g >   2b1u :   -0.4570935301
         0 >   0      :      1b3g >    1au :    0.4570770656
         0 >   2      :      1b2g >   4b1u :   -0.1457378782
         0 >   1      :      1b3g >    2au :    0.1457351268
         2 >  11      :      3b2u >  15b1g :    0.0248928250
 RIjAb (libdpd indices)     : (cscf notation)
        0   0 >   0   0     :   1b2g   1b1u >   2b1u   2b1u :   -0.0298949980
        0   0 >   0   0     :   1b1u   1b2g >   2b1u   2b1u :   -0.0298949980
        0   0 >   0   0     :   1b3g   1b1u >    1au   2b1u :   -0.0298944531
        0   0 >   0   0     :   1b1u   1b3g >   2b1u    1au :   -0.0298944531
        0   0 >   0   0     :   1b3g   1b1u >   2b1u    1au :   -0.0298941173
 RIJAB (libdpd indices)     : (cscf notation)
        2   0 >   0  11     :   3b2u   1b1u >    1au   18ag :    0.0064503146
        2   0 >   0   7     :   3b2u   1b1u >   2b1u  11b1g :    0.0064501976
        0   2 >   8   0     :   1b1u   3b1g >  13b2u   2b1u :    0.0051912510
        0   5 >  10   0     :   1b1u    6ag >  16b3u   2b1u :   -0.0051911300
        0   2 >  10   0     :   1b1u   3b1g >  16b3u    1au :    0.0051910934
 Rijab (libdpd indices)     : (cscf notation)
        2   0 >   0  11     :   3b2u   1b1u >    1au   18ag :    0.0064503146
        2   0 >   0   7     :   3b2u   1b1u >   2b1u  11b1g :    0.0064501976
        0   2 >   8   0     :   1b1u   3b1g >  13b2u   2b1u :    0.0051912510
        0   5 >  10   0     :   1b1u    6ag >  16b3u   2b1u :   -0.0051911300
        0   2 >  10   0     :   1b1u   3b1g >  16b3u    1au :    0.0051910934

	Putting into environment energy for root of R irrep 8 and root 3.
	Putting into environment CURRENT ENERGY:             -231.3551365815

	Total # of sigma evaluations: 529

    Psi4 stopped on: Thursday, 24 June 2021 10:48AM
    Psi4 wall time for execution: 0:59:45.78

*** Psi4 exiting successfully. Buy a developer a beer!
