       6
 i =     2000, time =     2000.000, E =       -13.7199073902
  C        10.1701197226       10.4358405111        9.5201853925
  H        10.4783705929       10.1773716903        8.4968401568
  H        10.2583449922       11.4710796500        9.7754111301
  C         9.8049631593        9.5564885547       10.4574000391
  H         9.4507675941        9.9025545002       11.4630508224
  H         9.6854220256        8.4944396792       10.3116173178
       6
 i =     2001, time =     2001.000, E =       -13.7201295736
  C        10.2089952479       10.4522279289        9.5470075094
  H        10.5297948521       10.2013538110        8.5220705298
  H        10.3210061356       11.4965520744        9.8128127095
  C         9.8349401801        9.5725300483       10.4716306317
  H         9.4918841829        9.9136696170       11.4662827752
  H         9.6945174587        8.5270918180       10.3147282007
       6
 i =     2002, time =     2002.000, E =       -13.7200450097
  C        10.2129573058       10.4514402574        9.5532917009
  H        10.5433438611       10.2075098887        8.5322802222
  H        10.3471294352       11.5069540692        9.8295182214
  C         9.8288730192        9.5718502857       10.4665374576
  H         9.5012770094        9.9063778603       11.4451550067
  H         9.6691596328        8.5350971987       10.2947287617
       6
 i =     2003, time =     2003.000, E =       -13.7195775289
  C        10.2176115729       10.4512968412        9.5590663146
  H        10.5542279989       10.2129052135        8.5465505089
  H        10.3714461921       11.5144921831        9.8445192009
  C         9.8223014906        9.5715049201       10.4618559021
  H         9.5120716304        9.8996838020       11.4259666619
  H         9.6446188826        8.5344414040       10.2715500973
       6
 i =     2004, time =     2004.000, E =       -13.7191406614
  C        10.2230894662       10.4522375546        9.5644675654
  H        10.5628127429       10.2171400001        8.5625403584
  H        10.3934737521       11.5155995844        9.8571591324
  C         9.8152873373        9.5710453964       10.4571057972
  H         9.5218887729        9.8952751919       11.4152914787
  H         9.6210779310        8.5275005983       10.2457053527
       6
 i =     2005, time =     2005.000, E =       -13.7193039673
  C        10.2293672110       10.4544571186        9.5696256578
  H        10.5696949244       10.2196490323        8.5768962039
  H        10.4127387940       11.5090161174        9.8671800457
  C         9.8079126038        9.5699773443       10.4519803139
  H         9.5290434759        9.8938848660       11.4173186703
  H         9.5994146972        8.5189315339       10.2187281513
       6
 i =     2006, time =     2006.000, E =       -13.7199102254
  C        10.2364480854       10.4578966183        9.5747427119
  H        10.5756191668       10.2200502292        8.5867921016
  H        10.4295924130       11.4960374061        9.8751911717
  C         9.8000426136        9.5679870835       10.4464255801
  H         9.5334768766        9.8944691341       11.4311579163
  H         9.5801492010        8.5132903145       10.1919755942
       6
 i =     2007, time =     2007.000, E =       -13.7202016445
  C        10.2441970140       10.4621776889        9.5798448350
  H        10.5808712429       10.2183162887        8.5906270349
  H        10.4446584759       11.4804405953        9.8823104868
  C         9.7916073283        9.5650815385       10.4407920244
  H         9.5362183411        9.8945792047       11.4512828440
  H         9.5638017697        8.5136939343       10.1669993376
       6
 i =     2008, time =     2008.000, E =       -13.7199152323
  C        10.2524880294       10.4667149687        9.5848443432
  H        10.5852014923       10.2149739677        8.5888916598
  H        10.4590806424       11.4674052134        9.8901063786
  C         9.7825517013        9.5615308038       10.4355209684
  H         9.5385945791        9.8914387900       11.4705475707
  H         9.5503191586        8.5209669448       10.1446983880
       6
 i =     2009, time =     2009.000, E =       -13.7195803199
  C        10.2612674874       10.4709047164        9.5896146206
  H        10.5879581384       10.2110168636        8.5837591101
  H        10.4742238256       11.4616585432        9.9001124272
  C         9.7728491566        9.5577588004       10.4309182949
  H         9.5415223790        9.8828595130       11.4831093170
  H         9.5390217622        8.5337221059       10.1250855978
       6
 i =     2010, time =     2010.000, E =       -13.7197690738
  C        10.2702613881       10.4741972204        9.5939367723
  H        10.5883329738       10.2077950215        8.5782351511
  H        10.4906134068       11.4654724376        9.9127908979
  C         9.7628530866        9.5543864264       10.4272270233
  H         9.5451658367        9.8679530877       11.4853851583
  H         9.5291089897        8.5483971219       10.1079967001
       6
 i =     2011, time =     2011.000, E =       -13.7203331088
  C        10.2794487894       10.4764786378        9.5978566854
  H        10.5858655872       10.2064693891        8.5747782432
  H        10.5083361056       11.4770331309        9.9276118028
  C         9.7527564525        9.5519122559       10.4243471157
  H         9.5491101647        9.8468076939       11.4772782199
  H         9.5193034293        8.5609739022       10.0922462874
       6
 i =     2012, time =     2012.000, E =       -13.7206287172
  C        10.2887275725       10.4779005754        9.6015413257
  H        10.5805618541       10.2078739880        8.5747500766
  H        10.5265581453       11.4914065004        9.9428955581
  C         9.7428963304        9.5506954871       10.4219632828
  H         9.5523616962        9.8208155450       11.4619545966
  H         9.5086256599        8.5680776561       10.0767572358
       6
 i =     2013, time =     2013.000, E =       -13.7202888960
  C        10.2979697646       10.4787530100        9.6052718001
  H        10.5729263659       10.2123247550        8.5780640723
  H        10.5441426948       11.5028611200        9.9566729456
  C         9.7335999727        9.5507946988       10.4195053140
  H         9.5535779795        9.7922909386       11.4454918631
  H         9.4966782397        8.5686599110       10.0609569823
       6
 i =     2014, time =     2014.000, E =       -13.7197194912
  C        10.3072248949       10.4793197295        9.6094557945
  H        10.5636349621       10.2197487271        8.5834258585
  H        10.5605455526       11.5071954486        9.9677252044
  C         9.7249149626        9.5519822066       10.4162048266
  H         9.5514332004        9.7631404226       11.4348462691
  H         9.4834703566        8.5644095414       10.0447010541
       6
 i =     2015, time =     2015.000, E =       -13.7197634230
  C        10.3163683193       10.4797527678        9.6144125583
  H        10.5536126588       10.2296712696        8.5887137786
  H        10.5754096300       11.5022596737        9.9754321568
  C         9.7169367030        9.5538903059       10.4114565281
  H         9.5450577341        9.7351116779       11.4354644078
  H         9.4696488302        8.5587712419       10.0286858308
       6
 i =     2016, time =     2016.000, E =       -13.7204377737
  C        10.3252678046       10.4800442463        9.6203460900
  H        10.5436865000       10.2414876415        8.5918133510
  H        10.5889948108       11.4885488745        9.9801915762
  C         9.7096346927        9.5561719427       10.4051005189
  H         9.5345684989        9.7088046486       11.4477217380
  H         9.4559468490        8.5554791656       10.0137086592
       6
 i =     2017, time =     2017.000, E =       -13.7207291738
  C        10.3336175936       10.4800073130        9.6271335782
  H        10.5345920134       10.2544382441        8.5914819601
  H        10.6019446705       11.4694930907        9.9833511354
  C         9.7030193650        9.5585296964       10.3976469638
  H         9.5213447920        9.6845138448       11.4661191304
  H         9.4431558766        8.5573493486       10.0005185222
       6
 i =     2018, time =     2018.000, E =       -13.7201249039
  C        10.3411479072       10.4793371722        9.6343963155
  H        10.5266819226       10.2679544465        8.5880869392
  H        10.6154365282       11.4505615519        9.9870618870
  C         9.6970389636        9.5607611460       10.3899395306
  H         9.5073587484        9.6624097787       11.4824725334
  H         9.4316392091        8.5653625046        9.9892122801
       6
 i =     2019, time =     2019.000, E =       -13.7192646363
  C        10.3479660265       10.4777145111        9.6419141988
  H        10.5196990798       10.2822467954        8.5832185289
  H        10.6313284661       11.4365331177        9.9937238596
  C         9.6913947405        9.5628466500       10.3824852451
  H         9.4938736264        9.6420524699       11.4904230735
  H         9.4207854950        8.5789748143        9.9787257160
       6
 i =     2020, time =     2020.000, E =       -13.7190692870
  C        10.3539996875       10.4750442448        9.6492145033
  H        10.5135849875       10.2971278972        8.5791819456
  H        10.6504762838       11.4306478331       10.0048300727
  C         9.6860395465        9.5647629958       10.3758767433
  H         9.4821722728        9.6241206943       11.4859826681
  H         9.4099537130        8.5958650568        9.9678166697
       6
 i =     2021, time =     2021.000, E =       -13.7195852051
  C        10.3593451954       10.4715656330        9.6560193375
  H        10.5082985520       10.3124510299        8.5779666853
  H        10.6727192821       11.4321292816       10.0204549806
  C         9.6809307810        9.5665454834       10.3703839026
  H         9.4728041640        9.6092982070       11.4688222385
  H         9.3981540578        8.6130015083        9.9548518703
       6
 i =     2022, time =     2022.000, E =       -13.7200118403
  C        10.3641919770       10.4678182648        9.6622346063
  H        10.5039500038       10.3279213894        8.5806409859
  H        10.6967226376       11.4367730267       10.0392887364
  C         9.6760720259        9.5682070347       10.3659668207
  H         9.4656235819        9.5982575656       11.4422614755
  H         9.3844527893        8.6276346608        9.9383629063
       6
 i =     2023, time =     2023.000, E =       -13.7196823150
  C        10.3687966347       10.4644161889        9.6679640367
  H        10.5007704093       10.3432204075        8.5870997342
  H        10.7207348903       11.4391708898       10.0595205158
  C         9.6714612561        9.5696832658       10.3622158800
  H         9.4597215303        9.5914073413       11.4127455576
  H         9.3682325551        8.6385358832        9.9174835683
       6
 i =     2024, time =     2024.000, E =       -13.7189031102
  C        10.3733501826       10.4619011011        9.6733599409
  H        10.4991266225       10.3578544816        8.5960890047
  H        10.7429722164       11.4348240351       10.0793735724
  C         9.6671335796        9.5707871053       10.3584803450
  H         9.4537006501        9.5888923136       11.3888942147
  H         9.3496105866        8.6463386321        9.8925849414
       6
 i =     2025, time =     2025.000, E =       -13.7188010363
  C        10.3779519082       10.4606022336        9.6785769376
  H        10.4994135035       10.3713015350        8.6055709409
  H        10.7622321360       11.4214927176       10.0976849689
  C         9.6631032096        9.5712667882       10.3541155546
  H         9.4462443889        9.5904219107       11.3781806348
  H         9.3293634298        8.6531872882        9.8652579902
       6
 i =     2026, time =     2026.000, E =       -13.7197649980
  C        10.3827039841       10.4605600522        9.6838238357
  H        10.5019690889       10.3834322741        8.6136360588
  H        10.7786474225       11.3993020282       10.1146107353
  C         9.6592199030        9.5709092504       10.3487539055
  H         9.4368073278        9.5953293460       11.3825891116
  H         9.3081166872        8.6617963918        9.8371852678
       6
 i =     2027, time =     2027.000, E =       -13.7207167440
  C        10.3875606365       10.4615854570        9.6891289782
  H        10.5070118932       10.3941219976        8.6189213465
  H        10.7931287419       11.3709630871       10.1310916011
  C         9.6553003666        9.5695976890       10.3426012798
  H         9.4262227714        9.6026324995       11.3977262647
  H         9.2866318046        8.6742065133        9.8104048018
       6
 i =     2028, time =     2028.000, E =       -13.7206793722
  C        10.3922937092       10.4632501480        9.6942699455
  H        10.5144580022       10.4032490513        8.6211712272
  H        10.8072293450       11.3416516835       10.1486166111
  C         9.6512284273        9.5674079182       10.3363273839
  H         9.4163258659        9.6109646236       11.4149673413
  H         9.2657300057        8.6909566749        9.7869744088
       6
 i =     2029, time =     2029.000, E =       -13.7200622204
  C        10.3968102510       10.4650845016        9.6991231572
  H        10.5242838282       10.4112532591        8.6214732756
  H        10.8234249491       11.3158480363       10.1696188027
  C         9.6468151298        9.5645144185       10.3303843807
  H         9.4084809176        9.6191927271       11.4265814380
  H         9.2449262527        8.7117495031        9.7671764153
       6
 i =     2030, time =     2030.000, E =       -13.7199049885
  C        10.4009635768       10.4666783760        9.7034921353
  H        10.5362412685       10.4185367707        8.6215629490
  H        10.8433834258       11.2969318879       10.1955376722
  C         9.6420594099        9.5612524776       10.3251628831
  H         9.4036362685        9.6261327044       11.4272099250
  H         9.2236112796        8.7348751472        9.7508615832
       6
 i =     2031, time =     2031.000, E =       -13.7205063141
  C        10.4046859006       10.4678495066        9.7072974082
  H        10.5499178906       10.4254953509        8.6231742989
  H        10.8670050579       11.2851412741       10.2257852641
  C         9.6371172650        9.5580498555       10.3208469457
  H         9.4019887317        9.6307789432       11.4151282860
  H         9.2010642725        8.7577931373        9.7373387752
       6
 i =     2032, time =     2032.000, E =       -13.7211086338
  C        10.4080928225       10.4686843408        9.7107189560
  H        10.5650433572       10.4325798352        8.6274319584
  H        10.8926231871       11.2773537515       10.2580836657
  C         9.6321662667        9.5552679973       10.3172681943
  H         9.4028802549        9.6325667227       11.3924301125
  H         9.1763895359        8.7784034116        9.7255066106
       6
 i =     2033, time =     2033.000, E =       -13.7208459829
  C        10.4114072864       10.4693910109        9.7141194907
  H        10.5815498418       10.4402277205        8.6346267031
  H        10.9178363036       11.2690678322       10.2894238760
  C         9.6273591088        9.5531333602       10.3139096495
  H         9.4049537740        9.6313560611       11.3645337293
  H         9.1489285316        8.7957185197        9.7144851481
       6
 i =     2034, time =     2034.000, E =       -13.7198135779
  C        10.4147937140       10.4701335140        9.7178514209
  H        10.5991780962       10.4486586621        8.6441194140
  H        10.9399341262       11.2564876291       10.3164946367
  C         9.6228955728        9.5517658619       10.3100416097
  H         9.4063420152        9.6273741873       11.3398832634
  H         9.1191945520        8.8097150556        9.7042598372
       6
 i =     2035, time =     2035.000, E =       -13.7192289971
  C        10.4183786587       10.4709688069        9.7222278403
  H        10.6177952759       10.4580372018        8.6547625905
  H        10.9572634129       11.2374592425       10.3373347278
  C         9.6188560444        9.5511479769       10.3048826652
  H         9.4053009166        9.6209984528       11.3266082540
  H         9.0882610113        8.8215338923        9.6953748889
       6
 i =     2036, time =     2036.000, E =       -13.7198903915
  C        10.4221790404       10.4718170895        9.7273807214
  H        10.6370615806       10.4683560162        8.6652332640
  H        10.9693233107       11.2120384304       10.3514406922
  C         9.6152135003        9.5512132235       10.2980608262
  H         9.4010951375        9.6124725554       11.3285513675
  H         9.0578439176        8.8326358876        9.6886664645
       6
 i =     2037, time =     2037.000, E =       -13.7208225912
  C        10.4261508535       10.4724853658        9.7332660569
  H        10.6566081090       10.4795796012        8.6746596010
  H        10.9771675678       11.1821642460       10.3602371679
  C         9.6117687088        9.5518916786       10.2897954465
  H         9.3944855536        9.6017060101       11.3425661018
  H         9.0294051120        8.8443405876        9.6846479682
       6
 i =     2038, time =     2038.000, E =       -13.7206757470
  C        10.4301432758       10.4726888465        9.7395790987
  H        10.6757049616       10.4915002379        8.6827560491
  H        10.9831146171       11.1516088566       10.3667028138
  C         9.6082760582        9.5531190662       10.2808533531
  H         9.3873382175        9.5886762682       11.3605114416
  H         9.0042311419        8.8572797861        9.6832915606
       6
 i =     2039, time =     2039.000, E =       -13.7195856291
  C        10.4340417538       10.4721327507        9.7459837581
  H        10.6937945930       10.5040560723        8.6900100172
  H        10.9903341591       11.1242199770       10.3748290097
  C         9.6044531862        9.5548538953       10.2719630968
  H         9.3815241932        9.5734247718       11.3739814066
  H         8.9825507765        8.8716183136        9.6838782347
       6
 i =     2040, time =     2040.000, E =       -13.7188136022
  C        10.4377659409       10.4706117252        9.7521294466
  H        10.7101695706       10.5171154080        8.6971834908
  H        11.0015297245       11.1030857236       10.3880655653
  C         9.6001122503        9.5570574559       10.2637422239
  H         9.3784592243        9.5563576209       11.3768599126
  H         8.9641300412        8.8868959052        9.6851494919
       6
 i =     2041, time =     2041.000, E =       -13.7191251971
  C        10.4413047611       10.4681715348        9.7577119293
  H        10.7238441482       10.5302626483        8.7048040874
  H        11.0172807166       11.0893169340       10.4073766946
  C         9.5952612897        9.5596408125       10.2567275760
  H         9.3788857586        9.5384799337       11.3665404986
  H         8.9486816637        8.9019592832        9.6854607251
       6
 i =     2042, time =     2042.000, E =       -13.7199305295
  C        10.4449180078       10.4650485356        9.7628432955
  H        10.7344457214       10.5434526421        8.7132036330
  H        11.0360477421       11.0807628498       10.4312444605
  C         9.5898844105        9.5625659135       10.2509416695
  H         9.3826968752        9.5203885344       11.3442561142
  H         8.9353033441        8.9160335474        9.6831664381
       6
 i =     2043, time =     2043.000, E =       -13.7201332479
  C        10.4489381338       10.4616057485        9.7677997975
  H        10.7417736744       10.5566401539        8.7222022266
  H        11.0547004923       11.0738352567       10.4562213392
  C         9.5840497257        9.5657756070       10.2461155578
  H         9.3890622159        9.5025773542       11.3148975662
  H         8.9233757727        8.9286108861        9.6769223260
       6
 i =     2044, time =     2044.000, E =       -13.7194237936
  C        10.4536672684       10.4581737445        9.7729223294
  H        10.7458672921       10.5698746295        8.7312470125
  H        11.0700828651       11.0650243249       10.4786884024
  C         9.5778494731        9.5692163005       10.2416655761
  H         9.3965754373        9.4851122069       11.2862982373
  H         8.9127116342        8.9397795049        9.6659642775
       6
 i =     2045, time =     2045.000, E =       -13.7187872638
  C        10.4592973568       10.4549591283        9.7785036977
  H        10.7469212504       10.5832948323        8.7396396931
  H        11.0801011706       11.0519415340       10.4960976564
  C         9.5713586469        9.5728495999       10.2368521278
  H         9.4036639572        9.4675428276       11.2671124926
  H         8.9035841023        8.9502253763        9.6502086461
       6
 i =     2046, time =     2046.000, E =       -13.7193898796
  C        10.4657113602       10.4521080628        9.7845490075
  H        10.7451844696       10.5967042032        8.7465962079
  H        11.0839902709       11.0341404343       10.5071285116
  C         9.5647806609        9.5765386554       10.2312603044
  H         9.4090538171        9.4496916528       11.2633114629
  H         8.8967635406        8.9606976422        9.6306608867
       6
 i =     2047, time =     2047.000, E =       -13.7207342098
  C        10.4728425806       10.4495173866        9.7910830650
  H        10.7409123470       10.6103486379        8.7520186996
  H        11.0829887312       11.0122911414       10.5128957558
  C         9.5580281677        9.5802486711       10.2248124319
  H         9.4126526243        9.4311684120       11.2736711036
  H         8.8926480283        8.9722923614        9.6081344408
       6
 i =     2048, time =     2048.000, E =       -13.7212616894
  C        10.4803514486       10.4470219773        9.7978235002
  H        10.7343857206       10.6241329870        8.7561873215
  H        11.0798296770       10.9888409689       10.5160783605
  C         9.5511306399        9.5838407996       10.2180315580
  H         9.4149525270        9.4126789410       11.2910180496
  H         8.8914279437        8.9855871297        9.5839490073
       6
 i =     2049, time =     2049.000, E =       -13.7205708414
  C        10.4878194016       10.4443747323        9.8043840395
  H        10.7259206326       10.6379353980        8.7598231797
  H        11.0782345974       10.9669855271       10.5205430197
  C         9.5441470917        9.5871991178       10.2115874057
  H         9.4165169819        9.3953121618       11.3062601056
  H         8.8928038010        9.0007530508        9.5592178423
