
     Program PWSCF v.6.2 (svn rev. 14038) starts on 21Jun2021 at 20:19:17 

     This program is part of the open-source Quantum ESPRESSO suite
     for quantum simulation of materials; please cite
         "P. Giannozzi et al., J. Phys.:Condens. Matter 21 395502 (2009);
         "P. Giannozzi et al., J. Phys.:Condens. Matter 29 465901 (2017);
          URL http://www.quantum-espresso.org", 
     in publications or presentations arising from this work. More details at
     http://www.quantum-espresso.org/quote

     Parallel version (MPI), running on     1 processors

     MPI processes distributed on     1 nodes
     Waiting for input...
     Reading input from standard input

     Current dimensions of program PWSCF are:
     Max number of different atomic species (ntypx) = 10
     Max number of k-points (npk) =  40000
     Max angular momentum in pseudopotentials (lmaxx) =  3
               file Ti.pbe-mt_fhi.UPF: wavefunction(s)  4f renormalized

     gamma-point specific algorithms are used

     Subspace diagonalization in iterative solution of the eigenvalue problem:
     a serial algorithm will be used

 
     G-vector sticks info
     --------------------
     sticks:   dense  smooth     PW     G-vecs:    dense   smooth      PW
     Sum        1789     725    177                37603     9479    1169
 


     bravais-lattice index     =            0
     lattice parameter (alat)  =       8.7055  a.u.
     unit-cell volume          =     428.4669 (a.u.)^3
     number of atoms/cell      =            6
     number of atomic types    =            2
     number of electrons       =        32.00
     number of Kohn-Sham states=           20
     kinetic-energy cutoff     =      30.0000  Ry
     charge density cutoff     =     300.0000  Ry
     convergence threshold     =      1.0E-04
     mixing beta               =       0.3000
     number of iterations used =            8  plain     mixing
     Exchange-correlation      = PBE ( 1  4  3  4 0 0)
     nstep                     =          100


     celldm(1)=   8.705547  celldm(2)=   0.000000  celldm(3)=   0.000000
     celldm(4)=   0.000000  celldm(5)=   0.000000  celldm(6)=   0.000000

     crystal axes: (cart. coord. in units of alat)
               a(1) = (   1.000000   0.000000   0.000000 )  
               a(2) = (   0.000000   1.000000   0.000000 )  
               a(3) = (   0.000000   0.000000   0.649425 )  

     reciprocal axes: (cart. coord. in units 2 pi/alat)
               b(1) = (  1.000000  0.000000  0.000000 )  
               b(2) = (  0.000000  1.000000  0.000000 )  
               b(3) = (  0.000000  0.000000  1.539823 )  


     PseudoPot. # 1 for Ti read from file:
     /util/academic/espresso/6.2.1/pseudopotentials/upf_files/Ti.pbe-mt_fhi.UPF
     MD5 check sum: 639edeb71fe77a65403f758b771b521c
     Pseudo is Norm-conserving, Zval =  4.0
     Generated using FHI98PP, converted with fhi2upf.x v.5.0.2
     Using radial grid of  515 points,  3 beta functions with: 
                l(1) =   0
                l(2) =   2
                l(3) =   3

     PseudoPot. # 2 for O  read from file:
     /util/academic/espresso/6.2.1/pseudopotentials/upf_files/O.pbe-n-rrkjus_psl.0.1.UPF
     MD5 check sum: e057bbcf3229fb5d8c36c0c92f9568b4
     Pseudo is Ultrasoft + core correction, Zval =  6.0
     Generated using "atomic" code by A. Dal Corso v.5.0.2 svn rev. 9415
     Using radial grid of 1095 points,  4 beta functions with: 
                l(1) =   0
                l(2) =   0
                l(3) =   1
                l(4) =   1
     Q(r) pseudized with 0 coefficients 


     atomic species   valence    mass     pseudopotential
        Ti             4.00    47.86700     Ti( 1.00)
        O              6.00    15.99900     O ( 1.00)

     No symmetry found



   Cartesian axes

     site n.     atom                  positions (alat units)
         1           Ti  tau(   1) = (   0.0000000   0.0000000   0.0000000  )
         2           Ti  tau(   2) = (   0.5000000   0.5000000   0.3247125  )
         3           O   tau(   3) = (   0.6955260   0.6955260   0.0000000  )
         4           O   tau(   4) = (   0.3044740   0.3044740   0.0000000  )
         5           O   tau(   5) = (   0.1955260   0.8044740   0.3247125  )
         6           O   tau(   6) = (   0.8044740   0.1955260   0.3247125  )

     number of k points=     1  gaussian smearing, width (Ry)=  0.0100
                       cart. coord. in units 2pi/alat
        k(    1) = (   0.0000000   0.0000000   0.0000000), wk =   2.0000000

     Dense  grid:    18802 G-vectors     FFT dimensions: (  48,  48,  32)

     Smooth grid:     4740 G-vectors     FFT dimensions: (  32,  32,  20)

     Estimated max dynamical RAM per process >      39.43 MB

     Check: negative/imaginary core charge=   -0.000087    0.000000

     Initial potential from superposition of free atoms

     starting charge   31.99349, renormalised to   32.00000
     Starting wfc are   48 randomized atomic wfcs

     total cpu time spent up to now is        1.3 secs

     Self-consistent Calculation

     iteration #  1     ecut=    30.00 Ry     beta= 0.30
     Davidson diagonalization with overlap
     ethr =  1.00E-02,  avg # of iterations =  2.0

     total cpu time spent up to now is        1.4 secs

     total energy              =    -148.39369837 Ry
     Harris-Foulkes estimate   =    -148.99834328 Ry
     estimated scf accuracy    <       3.26990459 Ry

     iteration #  2     ecut=    30.00 Ry     beta= 0.30
     Davidson diagonalization with overlap
     ethr =  1.00E-02,  avg # of iterations =  3.0

     total cpu time spent up to now is        1.6 secs

     total energy              =    -148.46173460 Ry
     Harris-Foulkes estimate   =    -148.61328316 Ry
     estimated scf accuracy    <       0.66224264 Ry

     iteration #  3     ecut=    30.00 Ry     beta= 0.30
     Davidson diagonalization with overlap
     ethr =  2.07E-03,  avg # of iterations =  2.0

     total cpu time spent up to now is        1.7 secs

     total energy              =    -148.46109618 Ry
     Harris-Foulkes estimate   =    -148.49257850 Ry
     estimated scf accuracy    <       0.18872874 Ry

     iteration #  4     ecut=    30.00 Ry     beta= 0.30
     Davidson diagonalization with overlap
     ethr =  5.90E-04,  avg # of iterations =  2.0

     total cpu time spent up to now is        1.8 secs

     total energy              =    -148.48978267 Ry
     Harris-Foulkes estimate   =    -148.48893307 Ry
     estimated scf accuracy    <       0.01787511 Ry

     iteration #  5     ecut=    30.00 Ry     beta= 0.30
     Davidson diagonalization with overlap
     ethr =  5.59E-05,  avg # of iterations =  4.0

     total cpu time spent up to now is        1.9 secs

     total energy              =    -148.49576668 Ry
     Harris-Foulkes estimate   =    -148.50092379 Ry
     estimated scf accuracy    <       0.01962158 Ry

     iteration #  6     ecut=    30.00 Ry     beta= 0.30
     Davidson diagonalization with overlap
     ethr =  5.59E-05,  avg # of iterations =  1.0

     total cpu time spent up to now is        2.1 secs

     total energy              =    -148.49473319 Ry
     Harris-Foulkes estimate   =    -148.49661543 Ry
     estimated scf accuracy    <       0.00595842 Ry

     iteration #  7     ecut=    30.00 Ry     beta= 0.30
     Davidson diagonalization with overlap
     ethr =  1.86E-05,  avg # of iterations =  5.0

     total cpu time spent up to now is        2.2 secs

     total energy              =    -148.49680291 Ry
     Harris-Foulkes estimate   =    -148.49696059 Ry
     estimated scf accuracy    <       0.00073548 Ry

     iteration #  8     ecut=    30.00 Ry     beta= 0.30
     Davidson diagonalization with overlap
     ethr =  2.30E-06,  avg # of iterations =  2.0

     total cpu time spent up to now is        2.3 secs

     total energy              =    -148.49670984 Ry
     Harris-Foulkes estimate   =    -148.49684469 Ry
     estimated scf accuracy    <       0.00038547 Ry

     iteration #  9     ecut=    30.00 Ry     beta= 0.30
     Davidson diagonalization with overlap
     ethr =  1.20E-06,  avg # of iterations =  3.0

     total cpu time spent up to now is        2.4 secs

     End of self-consistent calculation

          k = 0.0000 0.0000 0.0000 (   585 PWs)   bands (ev):

   -11.3128  -9.8024  -9.7258  -9.7249   1.4382   1.7104   2.2609   2.9662
     2.9675   4.3783   4.3785   4.8018   6.1959   6.6662   6.6663   7.3245
     9.5688   9.5903   9.9372  10.3534

     the Fermi energy is     8.5433 ev

!    total energy              =    -148.49679817 Ry
     Harris-Foulkes estimate   =    -148.49680892 Ry
     estimated scf accuracy    <       0.00002052 Ry

     convergence has been achieved in   9 iterations

     Forces acting on atoms (cartesian axes, Ry/au):

     atom    1 type  1   force =    -0.00013393   -0.00012764   -0.00000846
     atom    2 type  1   force =     0.00003074   -0.00005527    0.00001262
     atom    3 type  2   force =    -0.11311917   -0.11306076    0.00000682
     atom    4 type  2   force =     0.11320211    0.11314777    0.00000138
     atom    5 type  2   force =    -0.11314687    0.11315003    0.00000732
     atom    6 type  2   force =     0.11316713   -0.11305414   -0.00001967

     Total force =     0.319983     Total SCF correction =     0.002262

     Molecular Dynamics Calculation

     Starting temperature  =   300.00 K

     temperature is controlled by Andersen thermostat
     Collision frequency = 0.1000/timestep
     mass Ti               =    47.87
     mass O                =    16.00
     Time step             =    20.67 a.u.,  1.0000 femto-seconds

     Entering Dynamics:    iteration =     1
                           time      =   0.0010 pico-seconds


ATOMIC_POSITIONS (angstrom)
Ti      -0.001827495  -0.000402031  -0.000715025
Ti       2.304673642   2.306210963   1.494891322
O        3.201421118   3.199094580  -0.004369512
O        1.402996450   1.402640783   0.009462442
O        0.901251353   3.704902046   1.491027499
O        3.709508462   0.899675692   1.500728545


     kinetic energy (Ekin) =     0.01425067 Ry
     temperature           =   300.00000000 K 
     Ekin + Etot (const)   =  -148.48254750 Ry

     Linear momentum :    0.0000000000   -0.0000000000    0.0000000000

     Writing output data file x0.save
     NEW-OLD atomic charge density approx. for the potential

     Check: negative/imaginary core charge=   -0.000087    0.000000

     total cpu time spent up to now is        2.8 secs

     Self-consistent Calculation

     iteration #  1     ecut=    30.00 Ry     beta= 0.30
     Davidson diagonalization with overlap
     ethr =  1.00E-06,  avg # of iterations =  5.0

     total cpu time spent up to now is        2.9 secs

     total energy              =    -148.49895652 Ry
     Harris-Foulkes estimate   =    -148.49910183 Ry
     estimated scf accuracy    <       0.00045284 Ry

     iteration #  2     ecut=    30.00 Ry     beta= 0.30
     Davidson diagonalization with overlap
     ethr =  1.42E-06,  avg # of iterations =  3.0

     total cpu time spent up to now is        3.0 secs

     End of self-consistent calculation

          k = 0.0000 0.0000 0.0000 (   585 PWs)   bands (ev):

   -11.3147  -9.8220  -9.7231  -9.7058   1.4362   1.7074   2.2631   2.9528
     2.9563   4.3764   4.3808   4.8035   6.1950   6.6660   6.6692   7.3212
     9.5771   9.5860   9.9402  10.3558

     the Fermi energy is     8.5453 ev

!    total energy              =    -148.49900367 Ry
     Harris-Foulkes estimate   =    -148.49901693 Ry
     estimated scf accuracy    <       0.00007552 Ry

     convergence has been achieved in   2 iterations

     Forces acting on atoms (cartesian axes, Ry/au):

     atom    1 type  1   force =     0.00371594    0.00485937   -0.00140087
     atom    2 type  1   force =    -0.00506965   -0.00145336   -0.00011431
     atom    3 type  2   force =    -0.10837052   -0.10975736    0.00728372
     atom    4 type  2   force =     0.11198421    0.10930357   -0.00779218
     atom    5 type  2   force =    -0.11277878    0.11103299    0.00677768
     atom    6 type  2   force =     0.11051881   -0.11398520   -0.00475405

     Total force =     0.314297     Total SCF correction =     0.026803

     Entering Dynamics:    iteration =     2
                           time      =   0.0020 pico-seconds


     Andersen thermostat:    2 collisions

ATOMIC_POSITIONS (angstrom)
Ti      -0.004786605   0.001042354  -0.002890970
Ti       2.305974265   2.308369676   1.494636996
O        3.197070490   3.191697937  -0.007892805
O        1.405127188   1.403676318   0.019537347
O        0.903201795   3.703975687   1.486237178
O        3.714739895   0.896183143   1.506238320


     kinetic energy (Ekin) =     0.02023520 Ry
     temperature           =   425.98420112 K 
     Ekin + Etot (const)   =  -148.47876848 Ry
     Message from routine dynamics:
     Total linear momentum <> 0

     Linear momentum :   -0.0319921693    0.5015590578   -0.5605428887

     Writing output data file x0.save

     first order wave-functions extrapolation
     first order charge density extrapolation

     Check: negative/imaginary core charge=   -0.000087    0.000000

     total cpu time spent up to now is        3.7 secs

     Self-consistent Calculation

     iteration #  1     ecut=    30.00 Ry     beta= 0.30
     Davidson diagonalization with overlap
     ethr =  1.00E-06,  avg # of iterations =  4.0

     total cpu time spent up to now is        3.8 secs

     total energy              =    -148.50295705 Ry
     Harris-Foulkes estimate   =    -148.50309771 Ry
     estimated scf accuracy    <       0.00036415 Ry

     iteration #  2     ecut=    30.00 Ry     beta= 0.30
     Davidson diagonalization with overlap
     ethr =  1.14E-06,  avg # of iterations =  4.0

     total cpu time spent up to now is        3.9 secs

     End of self-consistent calculation

          k = 0.0000 0.0000 0.0000 (   585 PWs)   bands (ev):

   -11.3237  -9.8634  -9.7222  -9.6749   1.4342   1.7100   2.2624   2.9362
     2.9422   4.3699   4.3813   4.8035   6.1885   6.6583   6.6673   7.3103
     9.5915   9.6081   9.9661  10.3837

     the Fermi energy is     8.5697 ev

!    total energy              =    -148.50301760 Ry
     Harris-Foulkes estimate   =    -148.50303014 Ry
     estimated scf accuracy    <       0.00003623 Ry

     convergence has been achieved in   2 iterations

     Forces acting on atoms (cartesian axes, Ry/au):

     atom    1 type  1   force =     0.00463102    0.00705252   -0.00497822
     atom    2 type  1   force =    -0.00893302    0.00379893   -0.00225811
     atom    3 type  2   force =    -0.10066614   -0.10665579    0.01238994
     atom    4 type  2   force =     0.10860393    0.10214271   -0.00940858
     atom    5 type  2   force =    -0.11351999    0.10861598    0.01000288
     atom    6 type  2   force =     0.10988420   -0.11495436   -0.00574791

     Total force =     0.307052     Total SCF correction =     0.014448

     Entering Dynamics:    iteration =     3
                           time      =   0.0030 pico-seconds


ATOMIC_POSITIONS (angstrom)
Ti      -0.007721715   0.002523289  -0.005092715
Ti       2.307228593   2.310548076   1.494370968
O        3.191158995   3.182647557  -0.011223986
O        1.408941871   1.406295613   0.029466368
O        0.903392066   3.704733459   1.481601955
O        3.721675124   0.890908183   1.511658972


     kinetic energy (Ekin) =     0.02396359 Ry
     temperature           =   504.47301408 K 
     Ekin + Etot (const)   =  -148.47905401 Ry

     Linear momentum :   -0.0000000000    0.0000000000    0.0000000000

     Writing output data file x0.save

     second order wave-functions extrapolation
     second order charge density extrapolation

     Check: negative/imaginary core charge=   -0.000088    0.000000

     total cpu time spent up to now is        4.4 secs

     Self-consistent Calculation

     iteration #  1     ecut=    30.00 Ry     beta= 0.30
     Davidson diagonalization with overlap
     ethr =  1.00E-06,  avg # of iterations =  5.0

     total cpu time spent up to now is        4.6 secs

     total energy              =    -148.50922860 Ry
     Harris-Foulkes estimate   =    -148.50953647 Ry
     estimated scf accuracy    <       0.00070514 Ry

     iteration #  2     ecut=    30.00 Ry     beta= 0.30
     Davidson diagonalization with overlap
     ethr =  2.20E-06,  avg # of iterations =  3.0

     total cpu time spent up to now is        4.7 secs

     End of self-consistent calculation

          k = 0.0000 0.0000 0.0000 (   585 PWs)   bands (ev):

   -11.3453  -9.9246  -9.7257  -9.6447   1.4217   1.7012   2.2578   2.8977
     2.9054   4.3550   4.3738   4.7991   6.1720   6.6379   6.6564   7.2883
     9.5885   9.6404   9.9919  10.4107

     the Fermi energy is     8.5922 ev

!    total energy              =    -148.50933533 Ry
     Harris-Foulkes estimate   =    -148.50938058 Ry
     estimated scf accuracy    <       0.00005842 Ry

     convergence has been achieved in   2 iterations

     Forces acting on atoms (cartesian axes, Ry/au):

     atom    1 type  1   force =     0.00556555    0.01152480   -0.00881315
     atom    2 type  1   force =    -0.01272859    0.00535031   -0.00364815
     atom    3 type  2   force =    -0.09089673   -0.10121706    0.01931532
     atom    4 type  2   force =     0.10414848    0.09299502   -0.01301248
     atom    5 type  2   force =    -0.11106922    0.10454150    0.01527114
     atom    6 type  2   force =     0.10498051   -0.11319458   -0.00911268

     Total force =     0.293948     Total SCF correction =     0.015044

     Entering Dynamics:    iteration =     4
                           time      =   0.0040 pico-seconds


ATOMIC_POSITIONS (angstrom)
Ti      -0.010627982   0.004063951  -0.007340134
Ti       2.308416955   2.312754205   1.494086032
O        3.183838113   3.172027768  -0.014255677
O        1.414371416   1.410356832   0.039193626
O        0.901860168   3.707112187   1.477203517
O        3.730238114   0.883878099   1.516938328


     kinetic energy (Ekin) =     0.03021294 Ry
     temperature           =   636.03213260 K 
     Ekin + Etot (const)   =  -148.47912238 Ry

     Linear momentum :   -0.0000000000   -0.0000000000   -0.0000000000

     Writing output data file x0.save

     second order wave-functions extrapolation
     second order charge density extrapolation

     Check: negative/imaginary core charge=   -0.000089    0.000000

     total cpu time spent up to now is        5.2 secs

     Self-consistent Calculation

     iteration #  1     ecut=    30.00 Ry     beta= 0.30
     Davidson diagonalization with overlap
     ethr =  1.00E-06,  avg # of iterations =  4.0

     total cpu time spent up to now is        5.3 secs

     total energy              =    -148.51724687 Ry
     Harris-Foulkes estimate   =    -148.51785557 Ry
     estimated scf accuracy    <       0.00140341 Ry

     iteration #  2     ecut=    30.00 Ry     beta= 0.30
     Davidson diagonalization with overlap
     ethr =  4.39E-06,  avg # of iterations =  3.0

     total cpu time spent up to now is        5.4 secs

     total energy              =    -148.51749717 Ry
     Harris-Foulkes estimate   =    -148.51756055 Ry
     estimated scf accuracy    <       0.00017888 Ry

     iteration #  3     ecut=    30.00 Ry     beta= 0.30
     Davidson diagonalization with overlap
     ethr =  5.59E-07,  avg # of iterations =  4.0

     total cpu time spent up to now is        5.6 secs

     End of self-consistent calculation

          k = 0.0000 0.0000 0.0000 (   585 PWs)   bands (ev):

   -11.3621  -9.9680  -9.7214  -9.6188   1.4187   1.7067   2.2558   2.8670
     2.8758   4.3462   4.3718   4.8030   6.1623   6.6250   6.6543   7.2642
     9.5952   9.7022  10.0453  10.4704

     the Fermi energy is     7.9455 ev

!    total energy              =    -148.51751597 Ry
     Harris-Foulkes estimate   =    -148.51753334 Ry
     estimated scf accuracy    <       0.00002662 Ry

     convergence has been achieved in   3 iterations

     Forces acting on atoms (cartesian axes, Ry/au):

     atom    1 type  1   force =     0.00908279    0.01468682   -0.01107870
     atom    2 type  1   force =    -0.02090799    0.00960579   -0.00255806
     atom    3 type  2   force =    -0.08039379   -0.09407539    0.02520535
     atom    4 type  2   force =     0.09685687    0.08237330   -0.01744027
     atom    5 type  2   force =    -0.10580004    0.09764398    0.01935730
     atom    6 type  2   force =     0.10116217   -0.11023450   -0.01348561

     Total force =     0.277572     Total SCF correction =     0.019541

     Entering Dynamics:    iteration =     5
                           time      =   0.0050 pico-seconds


ATOMIC_POSITIONS (angstrom)
Ti      -0.013487177   0.005680727  -0.009644968
Ti       2.309496961   2.315010116   1.493787840
O        3.175270695   3.159949305  -0.016896549
O        1.421302762   1.415695279   0.048650466
O        0.898687801   3.711004921   1.473105222
O        3.740369662   0.875138788   1.522008585


     kinetic energy (Ekin) =     0.03831753 Ry
     temperature           =   806.64702041 K 
     Ekin + Etot (const)   =  -148.47919844 Ry

     Linear momentum :    0.0000000000    0.0000000000   -0.0000000000

     Writing output data file x0.save

     second order wave-functions extrapolation
     second order charge density extrapolation

     Check: negative/imaginary core charge=   -0.000089    0.000000

     total cpu time spent up to now is        6.1 secs

     Self-consistent Calculation

     iteration #  1     ecut=    30.00 Ry     beta= 0.30
     Davidson diagonalization with overlap
     ethr =  1.00E-06,  avg # of iterations =  4.0

     total cpu time spent up to now is        6.2 secs

     total energy              =    -148.52633191 Ry
     Harris-Foulkes estimate   =    -148.52733423 Ry
     estimated scf accuracy    <       0.00224372 Ry

     iteration #  2     ecut=    30.00 Ry     beta= 0.30
     Davidson diagonalization with overlap
     ethr =  7.01E-06,  avg # of iterations =  3.0

     total cpu time spent up to now is        6.3 secs

     total energy              =    -148.52678083 Ry
     Harris-Foulkes estimate   =    -148.52689092 Ry
     estimated scf accuracy    <       0.00030954 Ry

     iteration #  3     ecut=    30.00 Ry     beta= 0.30
     Davidson diagonalization with overlap
     ethr =  9.67E-07,  avg # of iterations =  4.0

     total cpu time spent up to now is        6.5 secs

     End of self-consistent calculation

          k = 0.0000 0.0000 0.0000 (   585 PWs)   bands (ev):

   -11.4015 -10.0387  -9.7336  -9.6113   1.3950   1.6868   2.2464   2.8038
     2.8116   4.3187   4.3502   4.7902   6.1287   6.5875   6.6312   7.2175
     9.5932   9.7581  10.0865  10.5148

     the Fermi energy is     7.9793 ev

!    total energy              =    -148.52681403 Ry
     Harris-Foulkes estimate   =    -148.52683976 Ry
     estimated scf accuracy    <       0.00003486 Ry

     convergence has been achieved in   3 iterations

     Forces acting on atoms (cartesian axes, Ry/au):

     atom    1 type  1   force =     0.01435960    0.01586175   -0.00997928
     atom    2 type  1   force =    -0.02760402    0.01236238   -0.00505344
     atom    3 type  2   force =    -0.06641624   -0.08375637    0.03231332
     atom    4 type  2   force =     0.08842253    0.06982130   -0.02323872
     atom    5 type  2   force =    -0.10017070    0.08904373    0.02506574
     atom    6 type  2   force =     0.09140883   -0.10333280   -0.01910762

     Total force =     0.255326     Total SCF correction =     0.022031

     Entering Dynamics:    iteration =     6
                           time      =   0.0060 pico-seconds


     Andersen thermostat:    1 collisions

ATOMIC_POSITIONS (angstrom)
Ti      -0.011762413   0.004995792  -0.009672954
Ti       2.308504244   2.318350189   1.492467048
O        3.163743803   3.147592262  -0.020032802
O        1.427675468   1.423136426   0.056750570
O        0.892032585   3.717298405   1.468399169
O        3.749988873   0.865817357   1.525786160


     kinetic energy (Ekin) =     0.04512771 Ry
     temperature           =   950.01241554 K 
     Ekin + Etot (const)   =  -148.48168632 Ry
     Message from routine dynamics:
     Total linear momentum <> 0

     Linear momentum :    1.4750928060   -0.7797901912    0.7616851828

     Writing output data file x0.save

     second order wave-functions extrapolation
     second order charge density extrapolation

     Check: negative/imaginary core charge=   -0.000090    0.000000

     total cpu time spent up to now is        6.9 secs

     Self-consistent Calculation

     iteration #  1     ecut=    30.00 Ry     beta= 0.30
     Davidson diagonalization with overlap
     ethr =  1.00E-06,  avg # of iterations = 11.0

     total cpu time spent up to now is        7.1 secs

     total energy              =    -148.53648129 Ry
     Harris-Foulkes estimate   =    -148.53674179 Ry
     estimated scf accuracy    <       0.00075494 Ry

     iteration #  2     ecut=    30.00 Ry     beta= 0.30
     Davidson diagonalization with overlap
     ethr =  2.36E-06,  avg # of iterations =  1.0

     total cpu time spent up to now is        7.2 secs

     total energy              =    -148.53645923 Ry
     Harris-Foulkes estimate   =    -148.53652884 Ry
     estimated scf accuracy    <       0.00018042 Ry

     iteration #  3     ecut=    30.00 Ry     beta= 0.30
     Davidson diagonalization with overlap
     ethr =  5.64E-07,  avg # of iterations =  4.0

     total cpu time spent up to now is        7.4 secs

     End of self-consistent calculation

          k = 0.0000 0.0000 0.0000 (   585 PWs)   bands (ev):

   -11.4224 -10.0719  -9.7301  -9.6040   1.3910   1.6892   2.2498   2.7575
     2.7724   4.3061   4.3429   4.7893   6.1099   6.5767   6.6332   7.1754
     9.6181   9.8474  10.1503  10.5863

     the Fermi energy is     8.0393 ev

!    total energy              =    -148.53646870 Ry
     Harris-Foulkes estimate   =    -148.53650013 Ry
     estimated scf accuracy    <       0.00005006 Ry

     convergence has been achieved in   3 iterations

     Forces acting on atoms (cartesian axes, Ry/au):

     atom    1 type  1   force =     0.01469818    0.02059669   -0.01306429
     atom    2 type  1   force =    -0.02678740    0.00857530   -0.00136963
     atom    3 type  2   force =    -0.05357958   -0.07111282    0.03670749
     atom    4 type  2   force =     0.07628243    0.05690019   -0.02939862
     atom    5 type  2   force =    -0.09160023    0.07930648    0.02995424
     atom    6 type  2   force =     0.08098661   -0.09426584   -0.02282920

     Total force =     0.228787     Total SCF correction =     0.010960

     Entering Dynamics:    iteration =     7
                           time      =   0.0070 pico-seconds


ATOMIC_POSITIONS (angstrom)
Ti      -0.009961477   0.004417600  -0.009768646
Ti       2.307372702   2.321734703   1.491139158
O        3.151386139   3.134132589  -0.022599891
O        1.435230961   1.431459831   0.064394838
O        0.883957072   3.724821567   1.464157569
O        3.760863812   0.855034300   1.529209761


     kinetic energy (Ekin) =     0.05386457 Ry
     temperature           =  1133.93763262 K 
     Ekin + Etot (const)   =  -148.48260413 Ry

     Linear momentum :    0.0000000000   -0.0000000000   -0.0000000000

     Writing output data file x0.save

     second order wave-functions extrapolation
     second order charge density extrapolation

     Check: negative/imaginary core charge=   -0.000091    0.000000

     total cpu time spent up to now is        7.8 secs

     Self-consistent Calculation

     iteration #  1     ecut=    30.00 Ry     beta= 0.30
     Davidson diagonalization with overlap
     ethr =  1.00E-06,  avg # of iterations =  5.0

     total cpu time spent up to now is        7.9 secs

     total energy              =    -148.54521676 Ry
     Harris-Foulkes estimate   =    -148.54615865 Ry
     estimated scf accuracy    <       0.00205494 Ry

     iteration #  2     ecut=    30.00 Ry     beta= 0.30
     Davidson diagonalization with overlap
     ethr =  6.42E-06,  avg # of iterations =  3.0

     total cpu time spent up to now is        8.1 secs

     total energy              =    -148.54566475 Ry
     Harris-Foulkes estimate   =    -148.54572339 Ry
     estimated scf accuracy    <       0.00016036 Ry

     iteration #  3     ecut=    30.00 Ry     beta= 0.30
     Davidson diagonalization with overlap
     ethr =  5.01E-07,  avg # of iterations =  4.0

     total cpu time spent up to now is        8.2 secs

     End of self-consistent calculation

          k = 0.0000 0.0000 0.0000 (   585 PWs)   bands (ev):

   -11.4628 -10.1252  -9.7508  -9.6129   1.3706   1.6704   2.2462   2.6817
     2.7106   4.2743   4.3181   4.7703   6.0682   6.5447   6.6193   7.1078
     9.6381   9.9314  10.2098  10.6449

     the Fermi energy is     8.0855 ev

!    total energy              =    -148.54570091 Ry
     Harris-Foulkes estimate   =    -148.54570765 Ry
     estimated scf accuracy    <       0.00000975 Ry

     convergence has been achieved in   3 iterations

     Forces acting on atoms (cartesian axes, Ry/au):

     atom    1 type  1   force =     0.01906427    0.02047324   -0.01179025
     atom    2 type  1   force =    -0.03106763    0.00806891   -0.00098224
     atom    3 type  2   force =    -0.03758870   -0.05411250    0.04001554
     atom    4 type  2   force =     0.06290718    0.04313896   -0.03659940
     atom    5 type  2   force =    -0.08019665    0.06641378    0.03554755
     atom    6 type  2   force =     0.06688153   -0.08398238   -0.02619119

     Total force =     0.198421     Total SCF correction =     0.007753

     Entering Dynamics:    iteration =     8
                           time      =   0.0080 pico-seconds


ATOMIC_POSITIONS (angstrom)
Ti      -0.008061740   0.003945510  -0.009925441
Ti       2.306080152   2.325161035   1.489806177
O        3.138445649   3.119833881  -0.024546524
O        1.443761854   1.440452123   0.071471618
O        0.874638081   3.733374499   1.460467147
O        3.772775773   0.842949064   1.532227257


     kinetic energy (Ekin) =     0.06300727 Ry
     temperature           =  1326.40664911 K 
     Ekin + Etot (const)   =  -148.48269363 Ry

     Linear momentum :   -0.0000000000   -0.0000000000   -0.0000000000

     Writing output data file x0.save

     second order wave-functions extrapolation
     second order charge density extrapolation

     Check: negative/imaginary core charge=   -0.000092    0.000000

     total cpu time spent up to now is        8.7 secs

     Self-consistent Calculation

     iteration #  1     ecut=    30.00 Ry     beta= 0.30
     Davidson diagonalization with overlap
     ethr =  1.00E-06,  avg # of iterations =  5.0

     total cpu time spent up to now is        8.8 secs

     total energy              =    -148.55313774 Ry
     Harris-Foulkes estimate   =    -148.55392537 Ry
     estimated scf accuracy    <       0.00173214 Ry

     iteration #  2     ecut=    30.00 Ry     beta= 0.30
     Davidson diagonalization with overlap
     ethr =  5.41E-06,  avg # of iterations =  3.0

     total cpu time spent up to now is        8.9 secs

     total energy              =    -148.55350269 Ry
     Harris-Foulkes estimate   =    -148.55356170 Ry
     estimated scf accuracy    <       0.00016504 Ry

     iteration #  3     ecut=    30.00 Ry     beta= 0.30
     Davidson diagonalization with overlap
     ethr =  5.16E-07,  avg # of iterations =  3.0

     total cpu time spent up to now is        9.1 secs

     End of self-consistent calculation

          k = 0.0000 0.0000 0.0000 (   585 PWs)   bands (ev):

   -11.4976 -10.1737  -9.7602  -9.6062   1.3600   1.6620   2.2484   2.6168
     2.6580   4.2503   4.2996   4.7624   6.0384   6.5229   6.6205   7.0499
     9.6795  10.0417  10.2921  10.7211

     the Fermi energy is     8.1478 ev

!    total energy              =    -148.55352622 Ry
     Harris-Foulkes estimate   =    -148.55353569 Ry
     estimated scf accuracy    <       0.00001476 Ry

     convergence has been achieved in   3 iterations

     Forces acting on atoms (cartesian axes, Ry/au):

     atom    1 type  1   force =     0.02118557    0.02202844   -0.01203571
     atom    2 type  1   force =    -0.03486216    0.00595191    0.00344169
     atom    3 type  2   force =    -0.01840110   -0.03609362    0.04206420
     atom    4 type  2   force =     0.04783848    0.02641203   -0.04381138
     atom    5 type  2   force =    -0.06698038    0.05197516    0.04005107
     atom    6 type  2   force =     0.05121959   -0.07027392   -0.02970987

     Total force =     0.167016     Total SCF correction =     0.013289

     Entering Dynamics:    iteration =     9
                           time      =   0.0090 pico-seconds


     Andersen thermostat:    1 collisions

ATOMIC_POSITIONS (angstrom)
Ti      -0.007719618   0.002243246  -0.010435948
Ti       2.302939520   2.327273876   1.488199697
O        3.140199430   3.117052711  -0.023223643
O        1.451367091   1.448509606   0.077577751
O        0.862613124   3.741388989   1.457106395
O        3.783814504   0.828429868   1.534492755


     kinetic energy (Ekin) =     0.04604525 Ry
     temperature           =   969.32809663 K 
     Ekin + Etot (const)   =  -148.50748097 Ry
     Message from routine dynamics:
     Total linear momentum <> 0

     Linear momentum :    1.2746167418    1.0276504155    0.2227060303

     Writing output data file x0.save

     second order wave-functions extrapolation
     second order charge density extrapolation

     Check: negative/imaginary core charge=   -0.000092    0.000000

     total cpu time spent up to now is        9.6 secs

     Self-consistent Calculation

     iteration #  1     ecut=    30.00 Ry     beta= 0.30
     Davidson diagonalization with overlap
     ethr =  1.00E-06,  avg # of iterations = 14.0

     total cpu time spent up to now is        9.8 secs

     total energy              =    -148.55830656 Ry
     Harris-Foulkes estimate   =    -148.55912738 Ry
     estimated scf accuracy    <       0.00203607 Ry

     iteration #  2     ecut=    30.00 Ry     beta= 0.30
     Davidson diagonalization with overlap
     ethr =  6.36E-06,  avg # of iterations =  3.0

     total cpu time spent up to now is        9.9 secs

     total energy              =    -148.55850833 Ry
     Harris-Foulkes estimate   =    -148.55861605 Ry
     estimated scf accuracy    <       0.00034250 Ry

     iteration #  3     ecut=    30.00 Ry     beta= 0.30
     Davidson diagonalization with overlap
     ethr =  1.07E-06,  avg # of iterations =  2.0

     total cpu time spent up to now is       10.0 secs

     End of self-consistent calculation

          k = 0.0000 0.0000 0.0000 (   585 PWs)   bands (ev):

   -11.5277 -10.1974  -9.7695  -9.6603   1.3404   1.6362   2.2483   2.5750
     2.5881   4.2390   4.2560   4.7327   5.9895   6.5161   6.5984   6.9762
     9.6987  10.0992  10.3106  10.7310

     the Fermi energy is     8.1528 ev

!    total energy              =    -148.55849069 Ry
     Harris-Foulkes estimate   =    -148.55854166 Ry
     estimated scf accuracy    <       0.00009947 Ry

     convergence has been achieved in   3 iterations

     Forces acting on atoms (cartesian axes, Ry/au):

     atom    1 type  1   force =     0.01789750    0.01990532   -0.01289617
     atom    2 type  1   force =    -0.03466542    0.00879718    0.00539964
     atom    3 type  2   force =    -0.01471620   -0.03272238    0.04336830
     atom    4 type  2   force =     0.04333267    0.02001198   -0.04958114
     atom    5 type  2   force =    -0.04612273    0.03447201    0.04606516
     atom    6 type  2   force =     0.03427418   -0.05046411   -0.03235579

     Total force =     0.142484     Total SCF correction =     0.034650
     SCF correction compared to forces is large: reduce conv_thr to get better values

     Entering Dynamics:    iteration =    10
                           time      =   0.0100 pico-seconds


     Andersen thermostat:    3 collisions

ATOMIC_POSITIONS (angstrom)
Ti      -0.005368433   0.000917973  -0.010938681
Ti       2.301807446   2.328172197   1.487950583
O        3.143913243   3.112504057  -0.019898939
O        1.458060532   1.448197030   0.075446479
O        0.852061229   3.748677869   1.455789283
O        3.780311718   0.827279600   1.536865868


     kinetic energy (Ekin) =     0.01899505 Ry
     temperature           =   399.87695108 K 
     Ekin + Etot (const)   =  -148.53949564 Ry
     Message from routine dynamics:
     Total linear momentum <> 0

     Linear momentum :   -1.6727331344    0.9632655852   -1.0162191358

     Writing output data file x0.save

     second order wave-functions extrapolation
     second order charge density extrapolation

     Check: negative/imaginary core charge=   -0.000092    0.000000

     total cpu time spent up to now is       10.5 secs

     Self-consistent Calculation

     iteration #  1     ecut=    30.00 Ry     beta= 0.30
     Davidson diagonalization with overlap
     ethr =  1.00E-06,  avg # of iterations =  5.0

     total cpu time spent up to now is       10.6 secs

     total energy              =    -148.56058211 Ry
     Harris-Foulkes estimate   =    -148.56076400 Ry
     estimated scf accuracy    <       0.00050186 Ry

     iteration #  2     ecut=    30.00 Ry     beta= 0.30
     Davidson diagonalization with overlap
     ethr =  1.57E-06,  avg # of iterations =  3.0

     total cpu time spent up to now is       10.7 secs

     total energy              =    -148.56060766 Ry
     Harris-Foulkes estimate   =    -148.56063883 Ry
     estimated scf accuracy    <       0.00010890 Ry

     iteration #  3     ecut=    30.00 Ry     beta= 0.30
     Davidson diagonalization with overlap
     ethr =  3.40E-07,  avg # of iterations =  2.0

     total cpu time spent up to now is       10.9 secs

     End of self-consistent calculation

          k = 0.0000 0.0000 0.0000 (   585 PWs)   bands (ev):

   -11.5190 -10.1681  -9.7652  -9.6769   1.3518   1.6500   2.2579   2.5775
     2.5978   4.2429   4.2616   4.7300   5.9860   6.5441   6.6140   6.9491
     9.7177  10.1334  10.3403  10.7654

     the Fermi energy is     8.1839 ev

!    total energy              =    -148.56060779 Ry
     Harris-Foulkes estimate   =    -148.56061708 Ry
     estimated scf accuracy    <       0.00002878 Ry

     convergence has been achieved in   3 iterations

     Forces acting on atoms (cartesian axes, Ry/au):

     atom    1 type  1   force =     0.01197078    0.02459917   -0.01421578
     atom    2 type  1   force =    -0.03009804    0.00690246    0.00898951
     atom    3 type  2   force =    -0.01532528   -0.02886359    0.03919639
     atom    4 type  2   force =     0.03760808    0.01917888   -0.04803767
     atom    5 type  2   force =    -0.03656113    0.02533791    0.04837318
     atom    6 type  2   force =     0.03240560   -0.04715483   -0.03430564

     Total force =     0.132092     Total SCF correction =     0.018239
     SCF correction compared to forces is large: reduce conv_thr to get better values

     Entering Dynamics:    iteration =    11
                           time      =   0.0110 pico-seconds


     Andersen thermostat:    3 collisions

ATOMIC_POSITIONS (angstrom)
Ti      -0.004066844  -0.000573524  -0.011697103
Ti       2.300123283   2.331441616   1.487725245
O        3.146277797   3.107214153  -0.016148494
O        1.463171116   1.448875695   0.075629603
O        0.839830804   3.756065913   1.455040201
O        3.786211620   0.819183479   1.536624667


     kinetic energy (Ekin) =     0.02507274 Ry
     temperature           =   527.82235125 K 
     Ekin + Etot (const)   =  -148.53553505 Ry
     Message from routine dynamics:
     Total linear momentum <> 0

     Linear momentum :    0.8497666814    0.2245207347    0.1391372884

     Writing output data file x0.save

     second order wave-functions extrapolation
     second order charge density extrapolation

     Check: negative/imaginary core charge=   -0.000093    0.000000

     total cpu time spent up to now is       11.3 secs

     Self-consistent Calculation

     iteration #  1     ecut=    30.00 Ry     beta= 0.30
     Davidson diagonalization with overlap
     ethr =  1.00E-06,  avg # of iterations =  5.0

     total cpu time spent up to now is       11.4 secs

     End of self-consistent calculation

          k = 0.0000 0.0000 0.0000 (   585 PWs)   bands (ev):

   -11.5353 -10.1858  -9.7598  -9.6974   1.3452   1.6403   2.2596   2.5531
     2.5594   4.2309   4.2492   4.7194   5.9644   6.5452   6.6102   6.9114
     9.7269  10.1773  10.3689  10.7877

     the Fermi energy is     8.2014 ev

!    total energy              =    -148.56329766 Ry
     Harris-Foulkes estimate   =    -148.56334567 Ry
     estimated scf accuracy    <       0.00008098 Ry

     convergence has been achieved in   1 iterations

     Forces acting on atoms (cartesian axes, Ry/au):

     atom    1 type  1   force =     0.01071943    0.02974344   -0.01362262
     atom    2 type  1   force =    -0.03417591    0.00741926    0.00987907
     atom    3 type  2   force =    -0.01428427   -0.02692325    0.03629615
     atom    4 type  2   force =     0.03585705    0.01612899   -0.04849978
     atom    5 type  2   force =    -0.01848041    0.00872600    0.05019221
     atom    6 type  2   force =     0.02036411   -0.03509444   -0.03424502

     Total force =     0.120026     Total SCF correction =     0.033858
     SCF correction compared to forces is large: reduce conv_thr to get better values

     Entering Dynamics:    iteration =    12
                           time      =   0.0120 pico-seconds


     Andersen thermostat:    1 collisions

ATOMIC_POSITIONS (angstrom)
Ti      -0.002044343  -0.003698464  -0.011891194
Ti       2.298927363   2.332961897   1.488186034
O        3.149086226   3.099719206  -0.011200334
O        1.469503035   1.448016858   0.075695649
O        0.827979193   3.761801670   1.455704298
O        3.786449855   0.826602442   1.530148437


     kinetic energy (Ekin) =     0.02754031 Ry
     temperature           =   579.76883487 K 
     Ekin + Etot (const)   =  -148.53575735 Ry
     Message from routine dynamics:
     Total linear momentum <> 0

     Linear momentum :   -0.5086201282    1.3664843515   -0.4853586752

     Writing output data file x0.save

     second order wave-functions extrapolation
     second order charge density extrapolation

     Check: negative/imaginary core charge=   -0.000092    0.000000

     total cpu time spent up to now is       12.0 secs

     Self-consistent Calculation

     iteration #  1     ecut=    30.00 Ry     beta= 0.30
     Davidson diagonalization with overlap
     ethr =  1.00E-06,  avg # of iterations = 18.0

     total cpu time spent up to now is       12.1 secs

     total energy              =    -148.56438883 Ry
     Harris-Foulkes estimate   =    -148.56472596 Ry
     estimated scf accuracy    <       0.00082629 Ry

     iteration #  2     ecut=    30.00 Ry     beta= 0.30
     Davidson diagonalization with overlap
     ethr =  2.58E-06,  avg # of iterations =  3.0

     total cpu time spent up to now is       12.3 secs

     total energy              =    -148.56452916 Ry
     Harris-Foulkes estimate   =    -148.56455591 Ry
     estimated scf accuracy    <       0.00010031 Ry

     iteration #  3     ecut=    30.00 Ry     beta= 0.30
     Davidson diagonalization with overlap
     ethr =  3.13E-07,  avg # of iterations =  2.0

     total cpu time spent up to now is       12.4 secs

     End of self-consistent calculation

          k = 0.0000 0.0000 0.0000 (   585 PWs)   bands (ev):

   -11.5450 -10.1972  -9.7531  -9.7089   1.3407   1.6350   2.2616   2.5324
     2.5562   4.2273   4.2374   4.7097   5.9536   6.5604   6.6133   6.8845
     9.7296  10.1939  10.3827  10.8026

     the Fermi energy is     8.2132 ev

!    total energy              =    -148.56453914 Ry
     Harris-Foulkes estimate   =    -148.56454371 Ry
     estimated scf accuracy    <       0.00002247 Ry

     convergence has been achieved in   3 iterations

     Forces acting on atoms (cartesian axes, Ry/au):

     atom    1 type  1   force =     0.00109153    0.03600504   -0.01757004
     atom    2 type  1   force =    -0.02934675    0.00168363    0.01330007
     atom    3 type  2   force =    -0.01258709   -0.01857592    0.03229686
     atom    4 type  2   force =     0.03079062    0.01595519   -0.04857715
     atom    5 type  2   force =    -0.00909768    0.00125781    0.04882227
     atom    6 type  2   force =     0.01914938   -0.03632575   -0.02827202

     Total force =     0.112737     Total SCF correction =     0.015383
     SCF correction compared to forces is large: reduce conv_thr to get better values

     Entering Dynamics:    iteration =    13
                           time      =   0.0130 pico-seconds


     Andersen thermostat:    1 collisions

ATOMIC_POSITIONS (angstrom)
Ti      -0.000366021  -0.005931880  -0.013324766
Ti       2.297229518   2.335195831   1.487567327
O        3.151349653   3.092641159  -0.006899824
O        1.475962540   1.448110339   0.073860063
O        0.815636683   3.768261856   1.455976978
O        3.790127844   0.827125275   1.533550995


     kinetic energy (Ekin) =     0.02367708 Ry
     temperature           =   498.44137696 K 
     Ekin + Etot (const)   =  -148.54086206 Ry
     Message from routine dynamics:
     Total linear momentum <> 0

     Linear momentum :    0.2674246962   -0.5388667594    0.8778892918

     Writing output data file x0.save

     second order wave-functions extrapolation
     second order charge density extrapolation

     Check: negative/imaginary core charge=   -0.000092    0.000000

     total cpu time spent up to now is       12.8 secs

     Self-consistent Calculation

     iteration #  1     ecut=    30.00 Ry     beta= 0.30
     Davidson diagonalization with overlap
     ethr =  1.00E-06,  avg # of iterations =  5.0

     total cpu time spent up to now is       13.0 secs

     total energy              =    -148.56531839 Ry
     Harris-Foulkes estimate   =    -148.56537547 Ry
     estimated scf accuracy    <       0.00015575 Ry

     iteration #  2     ecut=    30.00 Ry     beta= 0.30
     Davidson diagonalization with overlap
     ethr =  4.87E-07,  avg # of iterations =  3.0

     total cpu time spent up to now is       13.1 secs

     End of self-consistent calculation

          k = 0.0000 0.0000 0.0000 (   585 PWs)   bands (ev):

   -11.5581 -10.2200  -9.7442  -9.7079   1.3374   1.6297   2.2648   2.5153
     2.5331   4.2178   4.2310   4.7058   5.9435   6.5743   6.6130   6.8592
     9.7445  10.2335  10.4140  10.8234

     the Fermi energy is     8.2298 ev

!    total energy              =    -148.56532243 Ry
     Harris-Foulkes estimate   =    -148.56534037 Ry
     estimated scf accuracy    <       0.00003404 Ry

     convergence has been achieved in   2 iterations

     Forces acting on atoms (cartesian axes, Ry/au):

     atom    1 type  1   force =    -0.00492610    0.04151964   -0.02041392
     atom    2 type  1   force =    -0.02795779    0.00024895    0.01715531
     atom    3 type  2   force =    -0.01056085   -0.01306250    0.02850534
     atom    4 type  2   force =     0.02532914    0.01316147   -0.04566382
     atom    5 type  2   force =     0.00560392   -0.01178415    0.05151359
     atom    6 type  2   force =     0.01251168   -0.03008341   -0.03109649

     Total force =     0.109946     Total SCF correction =     0.020289
     SCF correction compared to forces is large: reduce conv_thr to get better values

     Entering Dynamics:    iteration =    14
                           time      =   0.0140 pico-seconds


ATOMIC_POSITIONS (angstrom)
Ti       0.001286772  -0.007950122  -0.014864134
Ti       2.295386781   2.337431055   1.487037527
O        3.153449329   3.085360574  -0.002157328
O        1.482814782   1.448407894   0.071316444
O        0.803381064   3.774539324   1.457048395
O        3.793999832   0.827181654   1.536471390


     kinetic energy (Ekin) =     0.02414492 Ry
     temperature           =   508.29030552 K 
     Ekin + Etot (const)   =  -148.54117751 Ry

     Linear momentum :    0.0000000000    0.0000000000   -0.0000000000

     Writing output data file x0.save

     second order wave-functions extrapolation
     second order charge density extrapolation

     Check: negative/imaginary core charge=   -0.000092    0.000000

     total cpu time spent up to now is       13.5 secs

     Self-consistent Calculation

     iteration #  1     ecut=    30.00 Ry     beta= 0.30
     Davidson diagonalization with overlap
     ethr =  1.00E-06,  avg # of iterations =  7.0

     total cpu time spent up to now is       13.7 secs

     total energy              =    -148.56557569 Ry
     Harris-Foulkes estimate   =    -148.56562874 Ry
     estimated scf accuracy    <       0.00012914 Ry

     iteration #  2     ecut=    30.00 Ry     beta= 0.30
     Davidson diagonalization with overlap
     ethr =  4.04E-07,  avg # of iterations =  2.0

     total cpu time spent up to now is       13.8 secs

     End of self-consistent calculation

          k = 0.0000 0.0000 0.0000 (   585 PWs)   bands (ev):

   -11.5770 -10.2532  -9.7512  -9.6919   1.3286   1.6171   2.2670   2.4926
     2.5004   4.2016   4.2232   4.6994   5.9299   6.5809   6.6087   6.8360
     9.7584  10.2682  10.4390  10.8346

     the Fermi energy is     8.2373 ev

!    total energy              =    -148.56558517 Ry
     Harris-Foulkes estimate   =    -148.56559539 Ry
     estimated scf accuracy    <       0.00001492 Ry

     convergence has been achieved in   2 iterations

     Forces acting on atoms (cartesian axes, Ry/au):

     atom    1 type  1   force =    -0.01103920    0.04738827   -0.01585756
     atom    2 type  1   force =    -0.02800684   -0.00148383    0.01609148
     atom    3 type  2   force =    -0.00752116   -0.00666074    0.02429968
     atom    4 type  2   force =     0.02014960    0.00948276   -0.04435806
     atom    5 type  2   force =     0.02109548   -0.02566329    0.05182766
     atom    6 type  2   force =     0.00532213   -0.02306318   -0.03200321

     Total force =     0.110425     Total SCF correction =     0.015499
     SCF correction compared to forces is large: reduce conv_thr to get better values

     Entering Dynamics:    iteration =    15
                           time      =   0.0150 pico-seconds


ATOMIC_POSITIONS (angstrom)
Ti       0.002882354  -0.009722774  -0.016485683
Ti       2.293398900   2.339658588   1.486591121
O        3.155432387   3.077976711   0.002961943
O        1.489979451   1.448852483   0.068085035
O        0.791452538   3.780418874   1.458923419
O        3.797954341   0.826880429   1.538895564


     kinetic energy (Ekin) =     0.02439597 Ry
     temperature           =   513.57526639 K 
     Ekin + Etot (const)   =  -148.54118920 Ry

     Linear momentum :   -0.0000000000    0.0000000000   -0.0000000000

     Writing output data file x0.save

     second order wave-functions extrapolation
     second order charge density extrapolation

     Check: negative/imaginary core charge=   -0.000092    0.000000

     total cpu time spent up to now is       14.3 secs

     Self-consistent Calculation

     iteration #  1     ecut=    30.00 Ry     beta= 0.30
     Davidson diagonalization with overlap
     ethr =  1.00E-06,  avg # of iterations =  5.0

     total cpu time spent up to now is       14.5 secs

     total energy              =    -148.56529757 Ry
     Harris-Foulkes estimate   =    -148.56542253 Ry
     estimated scf accuracy    <       0.00031522 Ry

     iteration #  2     ecut=    30.00 Ry     beta= 0.30
     Davidson diagonalization with overlap
     ethr =  9.85E-07,  avg # of iterations =  2.0

     total cpu time spent up to now is       14.6 secs

     End of self-consistent calculation

          k = 0.0000 0.0000 0.0000 (   585 PWs)   bands (ev):

   -11.5939 -10.2855  -9.7542  -9.6691   1.3234   1.6089   2.2709   2.4689
     2.4782   4.1887   4.2180   4.6978   5.9215   6.5824   6.6143   6.8229
     9.7794  10.3103  10.4730  10.8578

     the Fermi energy is     8.2554 ev

!    total energy              =    -148.56526949 Ry
     Harris-Foulkes estimate   =    -148.56531990 Ry
     estimated scf accuracy    <       0.00006880 Ry

     convergence has been achieved in   2 iterations

     Forces acting on atoms (cartesian axes, Ry/au):

     atom    1 type  1   force =    -0.01765257    0.05412138   -0.01895739
     atom    2 type  1   force =    -0.02728883   -0.00387826    0.02046444
     atom    3 type  2   force =    -0.00379319   -0.00000504    0.01953025
     atom    4 type  2   force =     0.01456800    0.00623288   -0.03979943
     atom    5 type  2   force =     0.03593626   -0.03961923    0.05236189
     atom    6 type  2   force =    -0.00176967   -0.01685173   -0.03359976

     Total force =     0.118442     Total SCF correction =     0.036001
     SCF correction compared to forces is large: reduce conv_thr to get better values

     Entering Dynamics:    iteration =    16
                           time      =   0.0160 pico-seconds


     Andersen thermostat:    2 collisions

ATOMIC_POSITIONS (angstrom)
Ti       0.002252322  -0.010173324  -0.017634957
Ti       2.293533888   2.340520377   1.485145002
O        3.157259271   3.070820173   0.008784388
O        1.497272643   1.449621117   0.064636872
O        0.779983858   3.785911515   1.462010684
O        3.801784052   0.826545315   1.541199110


     kinetic energy (Ekin) =     0.02220159 Ry
     temperature           =   467.37996119 K 
     Ekin + Etot (const)   =  -148.54306790 Ry
     Message from routine dynamics:
     Total linear momentum <> 0

     Linear momentum :    0.0744241458   -0.1738335769   -0.3060387052

     Writing output data file x0.save

     second order wave-functions extrapolation
     second order charge density extrapolation

     Check: negative/imaginary core charge=   -0.000092    0.000000

     total cpu time spent up to now is       15.0 secs

     Self-consistent Calculation

     iteration #  1     ecut=    30.00 Ry     beta= 0.30
     Davidson diagonalization with overlap
     ethr =  1.00E-06,  avg # of iterations =  5.0

     total cpu time spent up to now is       15.2 secs

     total energy              =    -148.56449783 Ry
     Harris-Foulkes estimate   =    -148.56473577 Ry
     estimated scf accuracy    <       0.00062525 Ry

     iteration #  2     ecut=    30.00 Ry     beta= 0.30
     Davidson diagonalization with overlap
     ethr =  1.95E-06,  avg # of iterations =  1.0

     total cpu time spent up to now is       15.3 secs

     total energy              =    -148.56445376 Ry
     Harris-Foulkes estimate   =    -148.56453341 Ry
     estimated scf accuracy    <       0.00015188 Ry

     iteration #  3     ecut=    30.00 Ry     beta= 0.30
     Davidson diagonalization with overlap
     ethr =  4.75E-07,  avg # of iterations =  2.0

     total cpu time spent up to now is       15.4 secs

     End of self-consistent calculation

          k = 0.0000 0.0000 0.0000 (   585 PWs)   bands (ev):

   -11.6149 -10.3191  -9.7664  -9.6485   1.3123   1.5931   2.2734   2.4387
     2.4506   4.1720   4.2080   4.6907   5.9088   6.5760   6.6142   6.8111
     9.7947  10.3423  10.4969  10.8911

     the Fermi energy is     8.2819 ev

!    total energy              =    -148.56447408 Ry
     Harris-Foulkes estimate   =    -148.56448588 Ry
     estimated scf accuracy    <       0.00001829 Ry

     convergence has been achieved in   3 iterations

     Forces acting on atoms (cartesian axes, Ry/au):

     atom    1 type  1   force =    -0.01943016    0.05569995   -0.01279497
     atom    2 type  1   force =    -0.02970987   -0.00443922    0.02073832
     atom    3 type  2   force =     0.00054412    0.00701966    0.01222632
     atom    4 type  2   force =     0.00898225    0.00225568   -0.03671057
     atom    5 type  2   force =     0.04978390   -0.05187524    0.05077881
     atom    6 type  2   force =    -0.01017023   -0.00866083   -0.03423791

     Total force =     0.125329     Total SCF correction =     0.008272

     Entering Dynamics:    iteration =    17
                           time      =   0.0170 pico-seconds


ATOMIC_POSITIONS (angstrom)
Ti       0.001521594  -0.010335208  -0.018850542
Ti       2.293514906   2.341359159   1.483806360
O        3.159094592   3.063772477   0.014796406
O        1.504705108   1.450424727   0.060619496
O        0.769287097   3.790599812   1.465885293
O        3.805456070   0.826075912   1.542971784


     kinetic energy (Ekin) =     0.02136678 Ry
     temperature           =   449.80587857 K 
     Ekin + Etot (const)   =  -148.54310730 Ry

     Linear momentum :    0.0000000000   -0.0000000000   -0.0000000000

     Writing output data file x0.save

     second order wave-functions extrapolation
     second order charge density extrapolation

     Check: negative/imaginary core charge=   -0.000092    0.000000

     total cpu time spent up to now is       15.9 secs

     Self-consistent Calculation

     iteration #  1     ecut=    30.00 Ry     beta= 0.30
     Davidson diagonalization with overlap
     ethr =  1.00E-06,  avg # of iterations =  5.0

     total cpu time spent up to now is       16.0 secs

     total energy              =    -148.56324307 Ry
     Harris-Foulkes estimate   =    -148.56341988 Ry
     estimated scf accuracy    <       0.00041479 Ry

     iteration #  2     ecut=    30.00 Ry     beta= 0.30
     Davidson diagonalization with overlap
     ethr =  1.30E-06,  avg # of iterations =  3.0

     total cpu time spent up to now is       16.1 secs

     End of self-consistent calculation

          k = 0.0000 0.0000 0.0000 (   585 PWs)   bands (ev):

   -11.6310 -10.3451  -9.7664  -9.6365   1.3067   1.5844   2.2779   2.4074
     2.4386   4.1581   4.2027   4.6874   5.8990   6.5730   6.6182   6.8043
     9.8153  10.3829  10.5302  10.9196

     the Fermi energy is     8.3049 ev

!    total energy              =    -148.56329729 Ry
     Harris-Foulkes estimate   =    -148.56331606 Ry
     estimated scf accuracy    <       0.00002514 Ry

     convergence has been achieved in   2 iterations

     Forces acting on atoms (cartesian axes, Ry/au):

     atom    1 type  1   force =    -0.02362410    0.05905041   -0.01144187
     atom    2 type  1   force =    -0.02941244   -0.00550012    0.02309892
     atom    3 type  2   force =     0.00598824    0.01356463    0.00679164
     atom    4 type  2   force =     0.00278736   -0.00204429   -0.03188637
     atom    5 type  2   force =     0.06165225   -0.06394176    0.04854539
     atom    6 type  2   force =    -0.01739132   -0.00112888   -0.03510771

     Total force =     0.136682     Total SCF correction =     0.020178
     SCF correction compared to forces is large: reduce conv_thr to get better values

     Entering Dynamics:    iteration =    18
                           time      =   0.0180 pico-seconds


ATOMIC_POSITIONS (angstrom)
Ti       0.000668433  -0.010191065  -0.020125423
Ti       2.293343493   2.342169437   1.482587427
O        3.161022763   3.056935106   0.020913731
O        1.512180793   1.451196640   0.056107711
O        0.759546276   3.794296667   1.470512616
O        3.808858429   0.825589005   1.544200101


     kinetic energy (Ekin) =     0.02019624 Ry
     temperature           =   425.16405096 K 
     Ekin + Etot (const)   =  -148.54310105 Ry

     Linear momentum :    0.0000000000    0.0000000000   -0.0000000000

     Writing output data file x0.save

     second order wave-functions extrapolation
     second order charge density extrapolation

     Check: negative/imaginary core charge=   -0.000092    0.000000

     total cpu time spent up to now is       16.6 secs

     Self-consistent Calculation

     iteration #  1     ecut=    30.00 Ry     beta= 0.30
     Davidson diagonalization with overlap
     ethr =  1.00E-06,  avg # of iterations =  5.0

     total cpu time spent up to now is       16.8 secs

     total energy              =    -148.56187038 Ry
     Harris-Foulkes estimate   =    -148.56210229 Ry
     estimated scf accuracy    <       0.00055574 Ry

     iteration #  2     ecut=    30.00 Ry     beta= 0.30
     Davidson diagonalization with overlap
     ethr =  1.74E-06,  avg # of iterations =  3.0

     total cpu time spent up to now is       16.9 secs

     End of self-consistent calculation

          k = 0.0000 0.0000 0.0000 (   585 PWs)   bands (ev):

   -11.6506 -10.3732  -9.7723  -9.6298   1.2960   1.5691   2.2811   2.3812
     2.4130   4.1411   4.1932   4.6787   5.8843   6.5651   6.6161   6.7957
     9.8280  10.4094  10.5517  10.9277

     the Fermi energy is     8.3095 ev

!    total energy              =    -148.56188307 Ry
     Harris-Foulkes estimate   =    -148.56193396 Ry
     estimated scf accuracy    <       0.00006840 Ry

     convergence has been achieved in   2 iterations

     Forces acting on atoms (cartesian axes, Ry/au):

     atom    1 type  1   force =    -0.02587452    0.06142889   -0.00226457
     atom    2 type  1   force =    -0.03136679   -0.00585411    0.02062409
     atom    3 type  2   force =     0.01156455    0.02001682    0.00069544
     atom    4 type  2   force =    -0.00285071   -0.00726020   -0.02824672
     atom    5 type  2   force =     0.07264081   -0.07358042    0.04405727
     atom    6 type  2   force =    -0.02411334    0.00524902   -0.03486551

     Total force =     0.147451     Total SCF correction =     0.036385
     SCF correction compared to forces is large: reduce conv_thr to get better values

     Entering Dynamics:    iteration =    19
                           time      =   0.0190 pico-seconds


     Andersen thermostat:    1 collisions

ATOMIC_POSITIONS (angstrom)
Ti       0.000679502  -0.009749890  -0.021382119
Ti       2.294007847   2.342928053   1.481505302
O        3.164128571   3.050386780   0.027071763
O        1.510643582   1.452047546   0.050889131
O        0.751930103   3.796831307   1.475852987
O        3.812885225   0.825162162   1.544917737


     kinetic energy (Ekin) =     0.01555290 Ry
     temperature           =   327.41420065 K 
     Ekin + Etot (const)   =  -148.54633016 Ry
     Message from routine dynamics:
     Total linear momentum <> 0

     Linear momentum :   -0.7631483182    0.0163003654   -0.0228739141

     Writing output data file x0.save

     second order wave-functions extrapolation
     second order charge density extrapolation

     Check: negative/imaginary core charge=   -0.000092    0.000000

     total cpu time spent up to now is       17.3 secs

     Self-consistent Calculation

     iteration #  1     ecut=    30.00 Ry     beta= 0.30
     Davidson diagonalization with overlap
     ethr =  1.00E-06,  avg # of iterations =  5.0

     total cpu time spent up to now is       17.5 secs

     total energy              =    -148.56055885 Ry
     Harris-Foulkes estimate   =    -148.56074838 Ry
     estimated scf accuracy    <       0.00048035 Ry

     iteration #  2     ecut=    30.00 Ry     beta= 0.30
     Davidson diagonalization with overlap
     ethr =  1.50E-06,  avg # of iterations =  1.0

     total cpu time spent up to now is       17.6 secs

     End of self-consistent calculation

          k = 0.0000 0.0000 0.0000 (   585 PWs)   bands (ev):

   -11.6578 -10.3867  -9.7606  -9.6246   1.2945   1.5673   2.2850   2.3623
     2.4206   4.1302   4.1992   4.6832   5.8842   6.5604   6.6171   6.8058
     9.8429  10.4373  10.5734  10.9257

     the Fermi energy is     8.3069 ev

!    total energy              =    -148.56052721 Ry
     Harris-Foulkes estimate   =    -148.56059389 Ry
     estimated scf accuracy    <       0.00009626 Ry

     convergence has been achieved in   2 iterations

     Forces acting on atoms (cartesian axes, Ry/au):

     atom    1 type  1   force =    -0.02533781    0.06570666   -0.00598083
     atom    2 type  1   force =    -0.03314271   -0.00721879    0.02706338
     atom    3 type  2   force =     0.01193558    0.02278291   -0.00543362
     atom    4 type  2   force =    -0.00315292   -0.00896474   -0.02139291
     atom    5 type  2   force =     0.08080340   -0.08231719    0.03984965
     atom    6 type  2   force =    -0.03110554    0.01001116   -0.03410567

     Total force =     0.158875     Total SCF correction =     0.041166
     SCF correction compared to forces is large: reduce conv_thr to get better values

     Entering Dynamics:    iteration =    20
                           time      =   0.0200 pico-seconds


     Andersen thermostat:    2 collisions

ATOMIC_POSITIONS (angstrom)
Ti      -0.000418715  -0.010308204  -0.021782522
Ti       2.294525711   2.345652962   1.480355960
O        3.168132034   3.043695291   0.032637063
O        1.509770074   1.452263030   0.044830364
O        0.746279407   3.797593168   1.481302760
O        3.817142309   0.824394126   1.544598072


     kinetic energy (Ekin) =     0.01547766 Ry
     temperature           =   325.83024389 K 
     Ekin + Etot (const)   =  -148.54504954 Ry
     Message from routine dynamics:
     Total linear momentum <> 0

     Linear momentum :   -0.5447250979    0.3794785991    0.3886975892

     Writing output data file x0.save

     second order wave-functions extrapolation
     second order charge density extrapolation

     Check: negative/imaginary core charge=   -0.000092    0.000000

     total cpu time spent up to now is       18.2 secs

     Self-consistent Calculation

     iteration #  1     ecut=    30.00 Ry     beta= 0.30
     Davidson diagonalization with overlap
     ethr =  1.00E-06,  avg # of iterations =  9.0

     total cpu time spent up to now is       18.3 secs

     total energy              =    -148.55938478 Ry
     Harris-Foulkes estimate   =    -148.55960781 Ry
     estimated scf accuracy    <       0.00055035 Ry

     iteration #  2     ecut=    30.00 Ry     beta= 0.30
     Davidson diagonalization with overlap
     ethr =  1.72E-06,  avg # of iterations =  2.0

     total cpu time spent up to now is       18.4 secs

     End of self-consistent calculation

          k = 0.0000 0.0000 0.0000 (   585 PWs)   bands (ev):

   -11.6731 -10.4091  -9.7753  -9.6072   1.2849   1.5544   2.2856   2.3593
     2.3897   4.1224   4.1889   4.6767   5.8765   6.5455   6.6053   6.8181
     9.8468  10.4413  10.5834  10.8972

     the Fermi energy is     8.2800 ev

!    total energy              =    -148.55936693 Ry
     Harris-Foulkes estimate   =    -148.55943187 Ry
     estimated scf accuracy    <       0.00009280 Ry

     convergence has been achieved in   2 iterations

     Forces acting on atoms (cartesian axes, Ry/au):

     atom    1 type  1   force =    -0.02565767    0.06813614    0.00611164
     atom    2 type  1   force =    -0.03925402   -0.01125259    0.02250240
     atom    3 type  2   force =     0.01375044    0.02472009   -0.01111505
     atom    4 type  2   force =    -0.00041947   -0.00619862   -0.01667440
     atom    5 type  2   force =     0.08925201   -0.09008001    0.03288172
     atom    6 type  2   force =    -0.03767129    0.01467500   -0.03370631

     Total force =     0.169365     Total SCF correction =     0.039569
     SCF correction compared to forces is large: reduce conv_thr to get better values

     Entering Dynamics:    iteration =    21
                           time      =   0.0210 pico-seconds


ATOMIC_POSITIONS (angstrom)
Ti      -0.001649903  -0.010513403  -0.022151251
Ti       2.294840141   2.348319556   1.479323237
O        3.172348704   3.037387096   0.038030020
O        1.508890063   1.452382401   0.038513055
O        0.742012597   3.796958304   1.487262377
O        3.820815286   0.823853631   1.543755777


     kinetic energy (Ekin) =     0.01417612 Ry
     temperature           =   298.43054882 K 
     Ekin + Etot (const)   =  -148.54519081 Ry

     Linear momentum :   -0.0000000000    0.0000000000    0.0000000000

     Writing output data file x0.save

     second order wave-functions extrapolation
     second order charge density extrapolation

     Check: negative/imaginary core charge=   -0.000092    0.000000

     total cpu time spent up to now is       18.9 secs

     Self-consistent Calculation

     iteration #  1     ecut=    30.00 Ry     beta= 0.30
     Davidson diagonalization with overlap
     ethr =  1.00E-06,  avg # of iterations =  5.0

     total cpu time spent up to now is       19.1 secs

     total energy              =    -148.55852391 Ry
     Harris-Foulkes estimate   =    -148.55910874 Ry
     estimated scf accuracy    <       0.00139332 Ry

     iteration #  2     ecut=    30.00 Ry     beta= 0.30
     Davidson diagonalization with overlap
     ethr =  4.35E-06,  avg # of iterations =  2.0

     total cpu time spent up to now is       19.2 secs

     total energy              =    -148.55857441 Ry
     Harris-Foulkes estimate   =    -148.55866484 Ry
     estimated scf accuracy    <       0.00018487 Ry

     iteration #  3     ecut=    30.00 Ry     beta= 0.30
     Davidson diagonalization with overlap
     ethr =  5.78E-07,  avg # of iterations =  5.0

     total cpu time spent up to now is       19.3 secs

     End of self-consistent calculation

          k = 0.0000 0.0000 0.0000 (   585 PWs)   bands (ev):

   -11.6756 -10.4176  -9.7568  -9.5985   1.2857   1.5542   2.2916   2.3540
     2.3901   4.1216   4.1961   4.6841   5.8812   6.5440   6.6061   6.8403
     9.8587  10.4549  10.5911  10.9009

     the Fermi energy is     8.2829 ev

!    total energy              =    -148.55859031 Ry
     Harris-Foulkes estimate   =    -148.55861696 Ry
     estimated scf accuracy    <       0.00003396 Ry

     convergence has been achieved in   3 iterations

     Forces acting on atoms (cartesian axes, Ry/au):

     atom    1 type  1   force =    -0.02516844    0.07032075    0.00401927
     atom    2 type  1   force =    -0.04299110   -0.01044934    0.02578490
     atom    3 type  2   force =     0.01496891    0.02597636   -0.01680694
     atom    4 type  2   force =     0.00048312   -0.00733961   -0.00895941
     atom    5 type  2   force =     0.09415545   -0.09500603    0.02757029
     atom    6 type  2   force =    -0.04144794    0.01649787   -0.03160811

     Total force =     0.176560     Total SCF correction =     0.019380
     SCF correction compared to forces is large: reduce conv_thr to get better values

     Entering Dynamics:    iteration =    22
                           time      =   0.0220 pico-seconds


ATOMIC_POSITIONS (angstrom)
Ti      -0.003011526  -0.010354165  -0.022499151
Ti       2.294931770   2.350931995   1.478424144
O        3.176797472   3.031481673   0.043162379
O        1.508017543   1.452387969   0.032056827
O        0.739205702   3.794850336   1.493649482
O        3.823845597   0.823568941   1.542423387


     kinetic energy (Ekin) =     0.01338093 Ry
     temperature           =   281.69059137 K 
     Ekin + Etot (const)   =  -148.54520938 Ry

     Linear momentum :   -0.0000000000    0.0000000000    0.0000000000

     Writing output data file x0.save

     second order wave-functions extrapolation
     second order charge density extrapolation

     Check: negative/imaginary core charge=   -0.000092    0.000000

     total cpu time spent up to now is       19.8 secs

     Self-consistent Calculation

     iteration #  1     ecut=    30.00 Ry     beta= 0.30
     Davidson diagonalization with overlap
     ethr =  1.00E-06,  avg # of iterations = 16.0

     total cpu time spent up to now is       20.0 secs

     total energy              =    -148.55823461 Ry
     Harris-Foulkes estimate   =    -148.55891824 Ry
     estimated scf accuracy    <       0.00164143 Ry

     iteration #  2     ecut=    30.00 Ry     beta= 0.30
     Davidson diagonalization with overlap
     ethr =  5.13E-06,  avg # of iterations =  2.0

     total cpu time spent up to now is       20.1 secs

     total energy              =    -148.55825386 Ry
     Harris-Foulkes estimate   =    -148.55838721 Ry
     estimated scf accuracy    <       0.00026472 Ry

     iteration #  3     ecut=    30.00 Ry     beta= 0.30
     Davidson diagonalization with overlap
     ethr =  8.27E-07,  avg # of iterations =  4.0

     total cpu time spent up to now is       20.3 secs

     End of self-consistent calculation

          k = 0.0000 0.0000 0.0000 (   585 PWs)   bands (ev):

   -11.6856 -10.4309  -9.7503  -9.6044   1.2790   1.5469   2.2909   2.3446
     2.3861   4.1144   4.1941   4.6813   5.8748   6.5303   6.5950   6.8487
     9.8621  10.4564  10.5920  10.9053

     the Fermi energy is     8.2855 ev

!    total energy              =    -148.55826647 Ry
     Harris-Foulkes estimate   =    -148.55830348 Ry
     estimated scf accuracy    <       0.00004693 Ry

     convergence has been achieved in   3 iterations

     Forces acting on atoms (cartesian axes, Ry/au):

     atom    1 type  1   force =    -0.02497899    0.07157262    0.01255304
     atom    2 type  1   force =    -0.04872766   -0.01060820    0.02314155
     atom    3 type  2   force =     0.01663641    0.02730632   -0.02324875
     atom    4 type  2   force =     0.00245661   -0.00800260   -0.00434281
     atom    5 type  2   force =     0.09797264   -0.09732093    0.02055077
     atom    6 type  2   force =    -0.04335900    0.01705279   -0.02865380

     Total force =     0.181831     Total SCF correction =     0.024886
     SCF correction compared to forces is large: reduce conv_thr to get better values

     Entering Dynamics:    iteration =    23
                           time      =   0.0230 pico-seconds


     Andersen thermostat:    1 collisions

ATOMIC_POSITIONS (angstrom)
Ti      -0.004342322  -0.010592213  -0.021292211
Ti       2.294931149   2.352721247   1.479134767
O        3.181664475   3.025231435   0.049424041
O        1.507343395   1.451501244   0.027023046
O        0.736477980   3.798134783   1.486971386
O        3.826363892   0.822780451   1.542136493


     kinetic energy (Ekin) =     0.01485747 Ry
     temperature           =   312.77425800 K 
     Ekin + Etot (const)   =  -148.54340900 Ry
     Message from routine dynamics:
     Total linear momentum <> 0

     Linear momentum :   -0.1225239638    0.5872428310   -1.1388348315

     Writing output data file x0.save

     second order wave-functions extrapolation
     second order charge density extrapolation

     Check: negative/imaginary core charge=   -0.000092    0.000000

     total cpu time spent up to now is       20.8 secs

     Self-consistent Calculation

     iteration #  1     ecut=    30.00 Ry     beta= 0.30
     Davidson diagonalization with overlap
     ethr =  1.00E-06,  avg # of iterations = 17.0

     total cpu time spent up to now is       20.9 secs

     total energy              =    -148.55610039 Ry
     Harris-Foulkes estimate   =    -148.55699156 Ry
     estimated scf accuracy    <       0.00222054 Ry

     iteration #  2     ecut=    30.00 Ry     beta= 0.30
     Davidson diagonalization with overlap
     ethr =  6.94E-06,  avg # of iterations =  2.0

     total cpu time spent up to now is       21.1 secs

     total energy              =    -148.55614937 Ry
     Harris-Foulkes estimate   =    -148.55630862 Ry
     estimated scf accuracy    <       0.00034850 Ry

     iteration #  3     ecut=    30.00 Ry     beta= 0.30
     Davidson diagonalization with overlap
     ethr =  1.09E-06,  avg # of iterations =  3.0

     total cpu time spent up to now is       21.2 secs

     total energy              =    -148.55616112 Ry
     Harris-Foulkes estimate   =    -148.55623047 Ry
     estimated scf accuracy    <       0.00011811 Ry

     iteration #  4     ecut=    30.00 Ry     beta= 0.30
     Davidson diagonalization with overlap
     ethr =  3.69E-07,  avg # of iterations =  4.0

     total cpu time spent up to now is       21.3 secs

     total energy              =    -148.55617848 Ry
     Harris-Foulkes estimate   =    -148.55622784 Ry
     estimated scf accuracy    <       0.00015354 Ry

     iteration #  5     ecut=    30.00 Ry     beta= 0.30
     Davidson diagonalization with overlap
     ethr =  3.69E-07,  avg # of iterations =  3.0

     total cpu time spent up to now is       21.4 secs

     End of self-consistent calculation

          k = 0.0000 0.0000 0.0000 (   585 PWs)   bands (ev):

   -11.6934 -10.4430  -9.7520  -9.5933   1.2770   1.5445   2.2922   2.3391
     2.3836   4.1025   4.1950   4.6810   5.8776   6.5310   6.5940   6.8587
     9.8690  10.4677  10.6044  10.9062

     the Fermi energy is     8.2853 ev

!    total energy              =    -148.55619238 Ry
     Harris-Foulkes estimate   =    -148.55619589 Ry
     estimated scf accuracy    <       0.00000570 Ry

     convergence has been achieved in   5 iterations

     Forces acting on atoms (cartesian axes, Ry/au):

     atom    1 type  1   force =    -0.02536986    0.07368413    0.00613883
     atom    2 type  1   force =    -0.05289243   -0.01195298    0.02775452
     atom    3 type  2   force =     0.01687528    0.02851944   -0.03039154
     atom    4 type  2   force =     0.00491086   -0.00594482    0.00007670
     atom    5 type  2   force =     0.10368183   -0.10393187    0.02754201
     atom    6 type  2   force =    -0.04720567    0.01962610   -0.03112052

     Total force =     0.194410     Total SCF correction =     0.002321

     Entering Dynamics:    iteration =    24
                           time      =   0.0240 pico-seconds


ATOMIC_POSITIONS (angstrom)
Ti      -0.005804596  -0.010448393  -0.020053455
Ti       2.294656414   2.354448552   1.479989227
O        3.186793136   3.019423402   0.055214472
O        1.506745391   1.450522341   0.021990454
O        0.735357884   3.799807728   1.480720340
O        3.828150245   0.822296271   1.541367064


     kinetic energy (Ekin) =     0.01234942 Ry
     temperature           =   259.97550136 K 
     Ekin + Etot (const)   =  -148.54384296 Ry

     Linear momentum :    0.0000000000   -0.0000000000    0.0000000000

     Writing output data file x0.save

     second order wave-functions extrapolation
     second order charge density extrapolation

     Check: negative/imaginary core charge=   -0.000092    0.000000

     total cpu time spent up to now is       21.9 secs

     Self-consistent Calculation

     iteration #  1     ecut=    30.00 Ry     beta= 0.30
     Davidson diagonalization with overlap
     ethr =  1.00E-06,  avg # of iterations =  4.0

     total cpu time spent up to now is       22.0 secs

     total energy              =    -148.55461648 Ry
     Harris-Foulkes estimate   =    -148.55488157 Ry
     estimated scf accuracy    <       0.00059091 Ry

     iteration #  2     ecut=    30.00 Ry     beta= 0.30
     Davidson diagonalization with overlap
     ethr =  1.85E-06,  avg # of iterations =  3.0

     total cpu time spent up to now is       22.1 secs

     End of self-consistent calculation

          k = 0.0000 0.0000 0.0000 (   585 PWs)   bands (ev):

   -11.6940 -10.4425  -9.7551  -9.5847   1.2776   1.5446   2.2948   2.3378
     2.3868   4.0958   4.1988   4.6810   5.8821   6.5378   6.5939   6.8661
     9.8697  10.4691  10.6048  10.9042

     the Fermi energy is     8.2835 ev

!    total energy              =    -148.55471825 Ry
     Harris-Foulkes estimate   =    -148.55475973 Ry
     estimated scf accuracy    <       0.00004922 Ry

     convergence has been achieved in   2 iterations

     Forces acting on atoms (cartesian axes, Ry/au):

     atom    1 type  1   force =    -0.02493517    0.07622510    0.00204135
     atom    2 type  1   force =    -0.05780298   -0.01138635    0.03020847
[...]

     total cpu time spent up to now is       78.1 secs

     total energy              =    -148.61839690 Ry
     Harris-Foulkes estimate   =    -148.61879427 Ry
     estimated scf accuracy    <       0.00098122 Ry

     iteration #  2     ecut=    30.00 Ry     beta= 0.30
     Davidson diagonalization with overlap
     ethr =  3.07E-06,  avg # of iterations =  2.0

     total cpu time spent up to now is       78.2 secs

     End of self-consistent calculation

          k = 0.0000 0.0000 0.0000 (   585 PWs)   bands (ev):

   -11.7758 -10.4415  -9.9635  -9.8850   1.2477   1.7036   2.2799   2.5130
     2.7490   3.9734   4.1948   4.5682   5.3177   6.0048   6.0703   6.7609
    10.3702  10.7074  10.7576  10.9362

     the Fermi energy is     8.3013 ev

!    total energy              =    -148.61847007 Ry
     Harris-Foulkes estimate   =    -148.61852198 Ry
     estimated scf accuracy    <       0.00007771 Ry

     convergence has been achieved in   2 iterations

     Forces acting on atoms (cartesian axes, Ry/au):

     atom    1 type  1   force =    -0.02017591    0.01605520    0.01328665
     atom    2 type  1   force =    -0.07602650   -0.02814101    0.02134423
     atom    3 type  2   force =     0.03389111   -0.00548099   -0.03820545
     atom    4 type  2   force =     0.02939386    0.00822546    0.01190743
     atom    5 type  2   force =     0.00783501    0.02395870    0.02990720
     atom    6 type  2   force =     0.02508244   -0.01461737   -0.03824006

     Total force =     0.124160     Total SCF correction =     0.034483
     SCF correction compared to forces is large: reduce conv_thr to get better values

     Entering Dynamics:    iteration =    95
                           time      =   0.0950 pico-seconds


ATOMIC_POSITIONS (angstrom)
Ti      -0.123376834  -0.090871321  -0.035266691
Ti       2.224170736   2.374170647   1.521775568
O        3.229818520   3.102532111   0.068126251
O        1.642712885   1.454094443   0.012585600
O        0.969140880   3.841214760   1.433673589
O        3.978020057   0.875817705   1.505403494


     kinetic energy (Ekin) =     0.01819975 Ry
     temperature           =   383.13474505 K 
     Ekin + Etot (const)   =  -148.60027032 Ry

     Linear momentum :    0.0000000000   -0.0000000000   -0.0000000000

     Writing output data file x0.save

     second order wave-functions extrapolation
     second order charge density extrapolation

     Check: negative/imaginary core charge=   -0.000091    0.000000

     total cpu time spent up to now is       78.8 secs

     Self-consistent Calculation

     iteration #  1     ecut=    30.00 Ry     beta= 0.30
     Davidson diagonalization with overlap
     ethr =  1.00E-06,  avg # of iterations =  5.0

     total cpu time spent up to now is       78.9 secs

     total energy              =    -148.61887045 Ry
     Harris-Foulkes estimate   =    -148.61934266 Ry
     estimated scf accuracy    <       0.00115277 Ry

     iteration #  2     ecut=    30.00 Ry     beta= 0.30
     Davidson diagonalization with overlap
     ethr =  3.60E-06,  avg # of iterations =  3.0

     total cpu time spent up to now is       79.1 secs

     total energy              =    -148.61896683 Ry
     Harris-Foulkes estimate   =    -148.61901334 Ry
     estimated scf accuracy    <       0.00012446 Ry

     iteration #  3     ecut=    30.00 Ry     beta= 0.30
     Davidson diagonalization with overlap
     ethr =  3.89E-07,  avg # of iterations =  4.0

     total cpu time spent up to now is       79.2 secs

     End of self-consistent calculation

          k = 0.0000 0.0000 0.0000 (   585 PWs)   bands (ev):

   -11.7709 -10.4414  -9.9546  -9.8671   1.2577   1.7182   2.2855   2.5238
     2.7654   3.9723   4.2053   4.5814   5.3174   6.0103   6.0804   6.7708
    10.3889  10.7091  10.7738  10.9388

     the Fermi energy is     8.3042 ev

!    total energy              =    -148.61897367 Ry
     Harris-Foulkes estimate   =    -148.61899883 Ry
     estimated scf accuracy    <       0.00003357 Ry

     convergence has been achieved in   3 iterations

     Forces acting on atoms (cartesian axes, Ry/au):

     atom    1 type  1   force =    -0.01411342    0.01822847    0.00699027
     atom    2 type  1   force =    -0.07992311   -0.02974518    0.02015499
     atom    3 type  2   force =     0.03359069   -0.01278018   -0.03880372
     atom    4 type  2   force =     0.03334347    0.01249708    0.01337640
     atom    5 type  2   force =     0.00759556    0.02175011    0.03435517
     atom    6 type  2   force =     0.01950682   -0.00995031   -0.03607310

     Total force =     0.126472     Total SCF correction =     0.018819
     SCF correction compared to forces is large: reduce conv_thr to get better values

     Entering Dynamics:    iteration =    96
                           time      =   0.0960 pico-seconds


     Andersen thermostat:    2 collisions

ATOMIC_POSITIONS (angstrom)
Ti      -0.126329428  -0.092181016  -0.033079476
Ti       2.225627121   2.373922067   1.523807588
O        3.230151781   3.101812904   0.068200914
O        1.643498439   1.452781453   0.010994832
O        0.974934599   3.847767370   1.428261679
O        3.975583991   0.875959453   1.499708087


     kinetic energy (Ekin) =     0.01327100 Ry
     temperature           =   279.37638836 K 
     Ekin + Etot (const)   =  -148.60570267 Ry
     Message from routine dynamics:
     Total linear momentum <> 0

     Linear momentum :   -0.9834960308   -0.4564697666    0.0529219041

     Writing output data file x0.save

     second order wave-functions extrapolation
     second order charge density extrapolation

     Check: negative/imaginary core charge=   -0.000091    0.000000

     total cpu time spent up to now is       79.7 secs

     Self-consistent Calculation

     iteration #  1     ecut=    30.00 Ry     beta= 0.30
     Davidson diagonalization with overlap
     ethr =  1.00E-06,  avg # of iterations =  4.0

     total cpu time spent up to now is       79.9 secs

     total energy              =    -148.61911911 Ry
     Harris-Foulkes estimate   =    -148.61927133 Ry
     estimated scf accuracy    <       0.00040622 Ry

     iteration #  2     ecut=    30.00 Ry     beta= 0.30
     Davidson diagonalization with overlap
     ethr =  1.27E-06,  avg # of iterations =  2.0

     total cpu time spent up to now is       80.0 secs

     End of self-consistent calculation

          k = 0.0000 0.0000 0.0000 (   585 PWs)   bands (ev):

   -11.7766 -10.4472  -9.9651  -9.8627   1.2483   1.7168   2.2857   2.5175
     2.7701   3.9738   4.1915   4.5733   5.3075   6.0026   6.0755   6.7675
    10.3835  10.7045  10.7554  10.9358

     the Fermi energy is     8.3008 ev

!    total energy              =    -148.61910982 Ry
     Harris-Foulkes estimate   =    -148.61915637 Ry
     estimated scf accuracy    <       0.00008135 Ry

     convergence has been achieved in   2 iterations

     Forces acting on atoms (cartesian axes, Ry/au):

     atom    1 type  1   force =    -0.01017417    0.02023520    0.00063218
     atom    2 type  1   force =    -0.08072143   -0.03401730    0.01656381
     atom    3 type  2   force =     0.03244525   -0.01150929   -0.03959162
     atom    4 type  2   force =     0.03239161    0.01626653    0.01457206
     atom    5 type  2   force =     0.00498443    0.02084305    0.03703696
     atom    6 type  2   force =     0.02107431   -0.01181820   -0.02921340

     Total force =     0.126522     Total SCF correction =     0.034361
     SCF correction compared to forces is large: reduce conv_thr to get better values

     Entering Dynamics:    iteration =    97
                           time      =   0.0970 pico-seconds


     Andersen thermostat:    1 collisions

ATOMIC_POSITIONS (angstrom)
Ti      -0.131309716  -0.091163580  -0.031081434
Ti       2.227510270   2.372546271   1.526007800
O        3.231833220   3.099964319   0.067744044
O        1.645631340   1.450769759   0.009712360
O        0.981650707   3.853692238   1.423506391
O        3.974319793   0.874967033   1.493642066


     kinetic energy (Ekin) =     0.01703666 Ry
     temperature           =   358.64975210 K 
     Ekin + Etot (const)   =  -148.60207316 Ry
     Message from routine dynamics:
     Total linear momentum <> 0

     Linear momentum :   -0.6460213749    0.7269128951   -0.0629509004

     Writing output data file x0.save

     second order wave-functions extrapolation
     second order charge density extrapolation

     Check: negative/imaginary core charge=   -0.000091    0.000000

     total cpu time spent up to now is       80.5 secs

     Self-consistent Calculation

     iteration #  1     ecut=    30.00 Ry     beta= 0.30
     Davidson diagonalization with overlap
     ethr =  1.00E-06,  avg # of iterations =  4.0

     total cpu time spent up to now is       80.6 secs

     total energy              =    -148.61952040 Ry
     Harris-Foulkes estimate   =    -148.61969141 Ry
     estimated scf accuracy    <       0.00043378 Ry

     iteration #  2     ecut=    30.00 Ry     beta= 0.30
     Davidson diagonalization with overlap
     ethr =  1.36E-06,  avg # of iterations =  2.0

     total cpu time spent up to now is       80.7 secs

     End of self-consistent calculation

          k = 0.0000 0.0000 0.0000 (   585 PWs)   bands (ev):

   -11.7815 -10.4615  -9.9661  -9.8424   1.2519   1.7291   2.2836   2.5233
     2.7725   3.9777   4.1857   4.5844   5.3151   5.9952   6.0785   6.7772
    10.4026  10.7165  10.7746  10.9491

     the Fermi energy is     8.3119 ev

!    total energy              =    -148.61954657 Ry
     Harris-Foulkes estimate   =    -148.61957099 Ry
     estimated scf accuracy    <       0.00004753 Ry

     convergence has been achieved in   2 iterations

     Forces acting on atoms (cartesian axes, Ry/au):

     atom    1 type  1   force =    -0.00595848    0.01746436   -0.00721815
     atom    2 type  1   force =    -0.08608318   -0.02830113    0.01577678
     atom    3 type  2   force =     0.03537073   -0.01456969   -0.04036186
     atom    4 type  2   force =     0.03325144    0.01604495    0.01657004
     atom    5 type  2   force =     0.00452661    0.01951130    0.03947051
     atom    6 type  2   force =     0.01889287   -0.01014978   -0.02423732

     Total force =     0.128800     Total SCF correction =     0.027420
     SCF correction compared to forces is large: reduce conv_thr to get better values

     Entering Dynamics:    iteration =    98
                           time      =   0.0980 pico-seconds


ATOMIC_POSITIONS (angstrom)
Ti      -0.136320884  -0.090055634  -0.029120799
Ti       2.228947294   2.371023804   1.528289775
O        3.234063095   3.097889825   0.066661349
O        1.648279817   1.449006847   0.008686812
O        0.988437002   3.859919635   1.419363109
O        3.973348535   0.873817236   1.487200237


     kinetic energy (Ekin) =     0.01718448 Ry
     temperature           =   361.76157961 K 
     Ekin + Etot (const)   =  -148.60236209 Ry

     Linear momentum :   -0.0000000000   -0.0000000000    0.0000000000

     Writing output data file x0.save

     second order wave-functions extrapolation
     second order charge density extrapolation

     Check: negative/imaginary core charge=   -0.000091    0.000000

     total cpu time spent up to now is       81.4 secs

     Self-consistent Calculation

     iteration #  1     ecut=    30.00 Ry     beta= 0.30
     Davidson diagonalization with overlap
     ethr =  1.00E-06,  avg # of iterations =  4.0

     total cpu time spent up to now is       81.5 secs

     total energy              =    -148.62002696 Ry
     Harris-Foulkes estimate   =    -148.62027132 Ry
     estimated scf accuracy    <       0.00057544 Ry

     iteration #  2     ecut=    30.00 Ry     beta= 0.30
     Davidson diagonalization with overlap
     ethr =  1.80E-06,  avg # of iterations =  2.0

     total cpu time spent up to now is       81.6 secs

     End of self-consistent calculation

          k = 0.0000 0.0000 0.0000 (   585 PWs)   bands (ev):

   -11.7894 -10.4767  -9.9691  -9.8149   1.2448   1.7313   2.2867   2.5191
     2.7699   3.9846   4.1776   4.5938   5.3197   5.9791   6.0749   6.7914
    10.4159  10.7175  10.7832  10.9477

     the Fermi energy is     8.3097 ev

!    total energy              =    -148.62004835 Ry
     Harris-Foulkes estimate   =    -148.62009413 Ry
     estimated scf accuracy    <       0.00006064 Ry

     convergence has been achieved in   2 iterations

     Forces acting on atoms (cartesian axes, Ry/au):

     atom    1 type  1   force =     0.00010300    0.01632498   -0.01057014
     atom    2 type  1   force =    -0.08427536   -0.03028387    0.01195281
     atom    3 type  2   force =     0.03200955   -0.01226833   -0.04064875
     atom    4 type  2   force =     0.03255490    0.01724064    0.01728783
     atom    5 type  2   force =     0.00291611    0.01753752    0.04010214
     atom    6 type  2   force =     0.01669181   -0.00855093   -0.01812389

     Total force =     0.125014     Total SCF correction =     0.033633
     SCF correction compared to forces is large: reduce conv_thr to get better values

     Entering Dynamics:    iteration =    99
                           time      =   0.0990 pico-seconds


ATOMIC_POSITIONS (angstrom)
Ti      -0.141331517  -0.088863085  -0.027214944
Ti       2.229947561   2.369344391   1.530633695
O        3.236789291   3.095625107   0.064948379
O        1.651433070   1.447511258   0.007929318
O        0.995268512   3.866418958   1.415841625
O        3.972636091   0.872534855   1.480477390


     kinetic energy (Ekin) =     0.01767820 Ry
     temperature           =   372.15505382 K 
     Ekin + Etot (const)   =  -148.60237015 Ry

     Linear momentum :   -0.0000000000    0.0000000000    0.0000000000

     Writing output data file x0.save

     second order wave-functions extrapolation
     second order charge density extrapolation

     Check: negative/imaginary core charge=   -0.000091    0.000000

     total cpu time spent up to now is       82.1 secs

     Self-consistent Calculation

     iteration #  1     ecut=    30.00 Ry     beta= 0.30
     Davidson diagonalization with overlap
     ethr =  1.00E-06,  avg # of iterations =  5.0

     total cpu time spent up to now is       82.3 secs

     total energy              =    -148.62028241 Ry
     Harris-Foulkes estimate   =    -148.62157969 Ry
     estimated scf accuracy    <       0.00310625 Ry

     iteration #  2     ecut=    30.00 Ry     beta= 0.30
     Davidson diagonalization with overlap
     ethr =  9.71E-06,  avg # of iterations =  2.0

     total cpu time spent up to now is       82.4 secs

     total energy              =    -148.62061041 Ry
     Harris-Foulkes estimate   =    -148.62070498 Ry
     estimated scf accuracy    <       0.00023057 Ry

     iteration #  3     ecut=    30.00 Ry     beta= 0.30
     Davidson diagonalization with overlap
     ethr =  7.21E-07,  avg # of iterations =  4.0

     total cpu time spent up to now is       82.6 secs

     End of self-consistent calculation

          k = 0.0000 0.0000 0.0000 (   585 PWs)   bands (ev):

   -11.8055 -10.5025  -9.9850  -9.8047   1.2375   1.7347   2.2798   2.5104
     2.7639   3.9798   4.1611   4.5926   5.3137   5.9561   6.0657   6.7857
    10.4344  10.7252  10.8008  10.9504

     the Fermi energy is     8.3100 ev

!    total energy              =    -148.62061430 Ry
     Harris-Foulkes estimate   =    -148.62067803 Ry
     estimated scf accuracy    <       0.00008062 Ry

     convergence has been achieved in   3 iterations

     Forces acting on atoms (cartesian axes, Ry/au):

     atom    1 type  1   force =     0.00389777    0.01583630   -0.01853791
     atom    2 type  1   force =    -0.08918651   -0.02418414    0.00988317
     atom    3 type  2   force =     0.03525019   -0.01568632   -0.03994779
     atom    4 type  2   force =     0.03193889    0.01592808    0.01817604
     atom    5 type  2   force =     0.00259621    0.01478587    0.04169311
     atom    6 type  2   force =     0.01550346   -0.00667979   -0.01126661

     Total force =     0.127713     Total SCF correction =     0.033540
     SCF correction compared to forces is large: reduce conv_thr to get better values

     Entering Dynamics:    iteration =   100
                           time      =   0.1000 pico-seconds


     Andersen thermostat:    1 collisions

ATOMIC_POSITIONS (angstrom)
Ti      -0.145288627  -0.087691452  -0.026183090
Ti       2.231518943   2.367436657   1.532250906
O        3.241095378   3.093014178   0.061838075
O        1.645798423   1.447187855   0.014442366
O        1.003173602   3.873044555   1.412188680
O        3.973197357   0.871045913   1.472801921


     kinetic energy (Ekin) =     0.02266956 Ry
     temperature           =   477.23151007 K 
     Ekin + Etot (const)   =  -148.59794474 Ry
     Message from routine dynamics:
     Total linear momentum <> 0

     Linear momentum :   -0.7899033335    0.0787266898    0.5946713864

     The maximum number of steps has been reached.

     End of molecular dynamics calculation

     diffusion coefficients :
     atom     1   D =       0.00000491 cm^2/s
     atom     2   D =       0.00000177 cm^2/s
     atom     3   D =       0.00000292 cm^2/s
     atom     4   D =       0.00001022 cm^2/s
     atom     5   D =       0.00000756 cm^2/s
     atom     6   D =       0.00001213 cm^2/s

     < D > =       0.00000659 cm^2/s

     Writing output data file x0.save
 
     init_run     :      0.44s CPU      0.45s WALL (       1 calls)
     electrons    :     31.69s CPU     34.24s WALL (     100 calls)
     update_pot   :     17.08s CPU     21.55s WALL (      99 calls)
     forces       :     13.37s CPU     13.79s WALL (     100 calls)

     Called by init_run:
     wfcinit      :      0.02s CPU      0.02s WALL (       1 calls)
     potinit      :      0.08s CPU      0.09s WALL (       1 calls)

     Called by electrons:
     c_bands      :      7.66s CPU      7.75s WALL (     247 calls)
     sum_band     :      8.01s CPU      8.08s WALL (     247 calls)
     v_of_rho     :     13.87s CPU     13.91s WALL (     347 calls)
     newd         :      6.29s CPU      6.74s WALL (     347 calls)
     mix_rho      :      0.72s CPU      0.72s WALL (     247 calls)

     Called by c_bands:
     init_us_2    :      0.17s CPU      0.20s WALL (     593 calls)
     regterg      :      7.22s CPU      7.29s WALL (     247 calls)

     Called by sum_band:
     sum_band:bec :      0.00s CPU      0.00s WALL (     247 calls)
     addusdens    :      5.18s CPU      5.24s WALL (     247 calls)

     Called by *egterg:
     h_psi        :      5.82s CPU      5.88s WALL (    1285 calls)
     s_psi        :      0.14s CPU      0.15s WALL (    1383 calls)
     g_psi        :      0.05s CPU      0.05s WALL (    1037 calls)
     rdiaghg      :      0.75s CPU      0.76s WALL (    1185 calls)

     Called by h_psi:
     h_psi:pot    :      5.80s CPU      5.85s WALL (    1285 calls)
     h_psi:calbec :      0.13s CPU      0.13s WALL (    1285 calls)
     vloc_psi     :      5.53s CPU      5.58s WALL (    1285 calls)
     add_vuspsi   :      0.13s CPU      0.13s WALL (    1285 calls)

     General routines
     calbec       :      0.24s CPU      0.26s WALL (    2128 calls)
     fft          :     13.05s CPU     13.08s WALL (    6351 calls)
     ffts         :      0.32s CPU      0.32s WALL (     594 calls)
     fftw         :      5.38s CPU      5.43s WALL (   19088 calls)
     interpolate  :      1.65s CPU      1.66s WALL (     594 calls)
     davcio       :      0.02s CPU      0.03s WALL (     392 calls)
 
     Parallel routines
 
     PWSCF        :  1m 8.68s CPU     1m22.90s WALL

 
   This run was terminated on:  20:20:40  21Jun2021            

=------------------------------------------------------------------------------=
   JOB DONE.
=------------------------------------------------------------------------------=
