
     Program PWSCF v.6.2 (svn rev. 14038) starts on 22Jun2021 at 18:56: 5 

     This program is part of the open-source Quantum ESPRESSO suite
     for quantum simulation of materials; please cite
         "P. Giannozzi et al., J. Phys.:Condens. Matter 21 395502 (2009);
         "P. Giannozzi et al., J. Phys.:Condens. Matter 29 465901 (2017);
          URL http://www.quantum-espresso.org", 
     in publications or presentations arising from this work. More details at
     http://www.quantum-espresso.org/quote

     Parallel version (MPI), running on    12 processors

     MPI processes distributed on     1 nodes
     R & G space division:  proc/nbgrp/npool/nimage =      12
     Waiting for input...
     Reading input from standard input

     Current dimensions of program PWSCF are:
     Max number of different atomic species (ntypx) = 10
     Max number of k-points (npk) =  40000
     Max angular momentum in pseudopotentials (lmaxx) =  3
               file Ir.pbe-n-rrkjus_psl.0.2.3.UPF: wavefunction(s)  5D renormalized

     gamma-point specific algorithms are used

     Subspace diagonalization in iterative solution of the eigenvalue problem:
     a serial algorithm will be used

 
     Parallelization info
     --------------------
     sticks:   dense  smooth     PW     G-vecs:    dense   smooth      PW
     Min         353     140     34                17398     4383     546
     Max         356     144     36                17404     4390     556
     Sum        4257    1701    421               208801    52635    6619
 


     bravais-lattice index     =            0
     lattice parameter (alat)  =      13.3514  a.u.
     unit-cell volume          =    2380.0325 (a.u.)^3
     number of atoms/cell      =           25
     number of atomic types    =            4
     number of electrons       =        72.00
     number of Kohn-Sham states=          100
     kinetic-energy cutoff     =      30.0000  Ry
     charge density cutoff     =     300.0000  Ry
     convergence threshold     =      1.0E-04
     mixing beta               =       0.3000
     number of iterations used =            8  plain     mixing
     Exchange-correlation      = PBE ( 1  4  3  4 0 0)

     celldm(1)=  13.351425  celldm(2)=   0.000000  celldm(3)=   0.000000
     celldm(4)=   0.000000  celldm(5)=   0.000000  celldm(6)=   0.000000

     crystal axes: (cart. coord. in units of alat)
               a(1) = (   1.000000   0.000000   0.000000 )  
               a(2) = (   0.000000   1.000000   0.000000 )  
               a(3) = (   0.000000   0.000000   1.000000 )  

     reciprocal axes: (cart. coord. in units 2 pi/alat)
               b(1) = (  1.000000  0.000000  0.000000 )  
               b(2) = (  0.000000  1.000000  0.000000 )  
               b(3) = (  0.000000  0.000000  1.000000 )  


     PseudoPot. # 1 for C  read from file:
     /util/academic/espresso/6.2.1/pseudopotentials/upf_files/C.pbe-n-rrkjus_psl.0.1.UPF
     MD5 check sum: ab446d787031eba755f1d5ee46644bb0
     Pseudo is Ultrasoft + core correction, Zval =  4.0
     Generated using "atomic" code by A. Dal Corso v.5.0.2 svn rev. 9415
     Using radial grid of 1073 points,  4 beta functions with: 
                l(1) =   0
                l(2) =   0
                l(3) =   1
                l(4) =   1
     Q(r) pseudized with 0 coefficients 


     PseudoPot. # 2 for H  read from file:
     /util/academic/espresso/6.2.1/pseudopotentials/upf_files/H.pbe-rrkjus_psl.0.1.UPF
     MD5 check sum: bd57da0722753ddfd9833a65b40bb853
     Pseudo is Ultrasoft, Zval =  1.0
     Generated using "atomic" code by A. Dal Corso v.5.0.2 svn rev. 9415
     Using radial grid of  929 points,  2 beta functions with: 
                l(1) =   0
                l(2) =   0
     Q(r) pseudized with 0 coefficients 


     PseudoPot. # 3 for Ir read from file:
     /util/academic/espresso/6.2.1/pseudopotentials/upf_files/Ir.pbe-n-rrkjus_psl.0.2.3.UPF
     MD5 check sum: 0d5bc36db6a0bde07ee800c0d8fcbb77
     Pseudo is Ultrasoft + core correction, Zval =  9.0
     Generated using "atomic" code by A. Dal Corso v.5.0.2 svn rev. 9415
     Using radial grid of 1277 points,  6 beta functions with: 
                l(1) =   0
                l(2) =   0
                l(3) =   1
                l(4) =   1
                l(5) =   2
                l(6) =   2
     Q(r) pseudized with 0 coefficients 


     PseudoPot. # 4 for N  read from file:
     /util/academic/espresso/6.2.1/pseudopotentials/upf_files/N.pbe-n-rrkjus_psl.0.1.UPF
     MD5 check sum: ed8b6a90f28a53b7d71920e7015d2dd6
     Pseudo is Ultrasoft + core correction, Zval =  5.0
     Generated using "atomic" code by A. Dal Corso v.5.0.2 svn rev. 9415
     Using radial grid of 1085 points,  4 beta functions with: 
                l(1) =   0
                l(2) =   0
                l(3) =   1
                l(4) =   1
     Q(r) pseudized with 0 coefficients 


     atomic species   valence    mass     pseudopotential
        C              4.00    12.01000     C ( 1.00)
        H              1.00     1.00700     H ( 1.00)
        Ir             9.00   192.21700     Ir( 1.00)
        N              5.00    14.00600     N ( 1.00)

     No symmetry found



   Cartesian axes

     site n.     atom                  positions (alat units)
         1           Ir  tau(   1) = (   0.0010582   0.0034556   0.0007944  )
         2           N   tau(   2) = (   0.1500397  -0.1977985  -0.1668361  )
         3           N   tau(   3) = (  -0.2371319   0.0056632  -0.1664172  )
         4           N   tau(   4) = (   0.1149610   0.2117196  -0.1598299  )
         5           C   tau(   5) = (  -0.0843638   0.2295208   0.1523189  )
         6           C   tau(   6) = (   0.2054055  -0.0504351   0.1823508  )
         7           C   tau(   7) = (   0.2835399  -0.2702810  -0.0642627  )
         8           C   tau(   8) = (   0.3028843  -0.2075454   0.1321512  )
         9           C   tau(   9) = (  -0.1526789  -0.1769678   0.1340922  )
        10           C   tau(  10) = (   0.0689971   0.3788015  -0.0935564  )
        11           C   tau(  11) = (  -0.0073511   0.3941275   0.0848156  )
        12           C   tau(  12) = (  -0.3570157  -0.1275423  -0.1160389  )
        13           C   tau(  13) = (  -0.3027659  -0.2397713   0.0413387  )
        14           H   tau(  14) = (   0.2630211   0.0363169   0.3048603  )
        15           H   tau(  15) = (   0.4030713  -0.2831282   0.2138243  )
        16           H   tau(  16) = (   0.3584287  -0.3932602  -0.1235493  )
        17           H   tau(  17) = (   0.0905706   0.4976043  -0.1955736  )
        18           H   tau(  18) = (  -0.0463672   0.5169202   0.1557571  )
        19           H   tau(  19) = (  -0.1376937   0.2357800   0.2918780  )
        20           H   tau(  20) = (  -0.3934270  -0.3261955   0.1157464  )
        21           H   tau(  21) = (  -0.1343252  -0.2260908   0.2829616  )
        22           H   tau(  22) = (  -0.4822773  -0.1609506  -0.2064823  )
        23           H   tau(  23) = (   0.1242265  -0.2730355  -0.2846555  )
        24           H   tau(  24) = (   0.1504558   0.2138297  -0.3027645  )
        25           H   tau(  25) = (  -0.2683163   0.0661740  -0.2992332  )

     number of k points=     1  gaussian smearing, width (Ry)=  0.0100
                       cart. coord. in units 2pi/alat
        k(    1) = (   0.0000000   0.0000000   0.0000000), wk =   2.0000000

     Dense  grid:   104401 G-vectors     FFT dimensions: (  75,  75,  75)

     Smooth grid:    26318 G-vectors     FFT dimensions: (  48,  48,  48)

     Estimated max dynamical RAM per process >      46.16 MB

     Estimated total dynamical RAM >     553.92 MB

     Check: negative/imaginary core charge=   -0.000002    0.000000

     Initial potential from superposition of free atoms

     starting charge   71.99934, renormalised to   72.00000
     Starting wfc are   69 randomized atomic wfcs +   31 random wfc

     total cpu time spent up to now is        2.5 secs

     Self-consistent Calculation

     iteration #  1     ecut=    30.00 Ry     beta= 0.30
     Davidson diagonalization with overlap
     ethr =  1.00E-02,  avg # of iterations =  5.0

     total cpu time spent up to now is        2.8 secs

     total energy              =    -243.64112672 Ry
     Harris-Foulkes estimate   =    -244.97745577 Ry
     estimated scf accuracy    <       3.49800370 Ry

     iteration #  2     ecut=    30.00 Ry     beta= 0.30
     Davidson diagonalization with overlap
     ethr =  4.86E-03,  avg # of iterations =  1.0

     total cpu time spent up to now is        3.0 secs

     total energy              =    -243.73530476 Ry
     Harris-Foulkes estimate   =    -244.04326126 Ry
     estimated scf accuracy    <       0.85659481 Ry

     iteration #  3     ecut=    30.00 Ry     beta= 0.30
     Davidson diagonalization with overlap
     ethr =  1.19E-03,  avg # of iterations =  4.0

     total cpu time spent up to now is        3.3 secs

     total energy              =    -243.77244782 Ry
     Harris-Foulkes estimate   =    -243.87521613 Ry
     estimated scf accuracy    <       0.33150223 Ry

     iteration #  4     ecut=    30.00 Ry     beta= 0.30
     Davidson diagonalization with overlap
     ethr =  4.60E-04,  avg # of iterations =  2.0

     negative rho (up, down):  1.670E-07 0.000E+00

     total cpu time spent up to now is        3.5 secs

     total energy              =    -243.79303792 Ry
     Harris-Foulkes estimate   =    -243.81223503 Ry
     estimated scf accuracy    <       0.05591272 Ry

     iteration #  5     ecut=    30.00 Ry     beta= 0.30
     Davidson diagonalization with overlap
     ethr =  7.77E-05,  avg # of iterations =  6.0

     negative rho (up, down):  1.140E-07 0.000E+00

     total cpu time spent up to now is        3.9 secs

     total energy              =    -243.80252860 Ry
     Harris-Foulkes estimate   =    -243.80324894 Ry
     estimated scf accuracy    <       0.00448963 Ry

     iteration #  6     ecut=    30.00 Ry     beta= 0.30
     Davidson diagonalization with overlap
     ethr =  6.24E-06,  avg # of iterations =  2.0

     negative rho (up, down):  4.537E-08 0.000E+00

     total cpu time spent up to now is        4.1 secs

     total energy              =    -243.80281342 Ry
     Harris-Foulkes estimate   =    -243.80293010 Ry
     estimated scf accuracy    <       0.00088472 Ry

     iteration #  7     ecut=    30.00 Ry     beta= 0.30
     Davidson diagonalization with overlap
     ethr =  1.23E-06,  avg # of iterations =  1.0

     total cpu time spent up to now is        4.3 secs

     End of self-consistent calculation

          k = 0.0000 0.0000 0.0000 (  3310 PWs)   bands (ev):

   -18.6319 -18.2139 -18.0084 -14.4463 -14.2493 -13.9946 -11.4380 -10.8684
   -10.4585  -9.2316  -8.5948  -8.3613  -8.2795  -8.0560  -7.7161  -6.5572
    -6.1499  -5.8199  -5.5516  -5.3377  -5.0575  -4.9188  -4.3906  -4.2008
    -4.0901  -3.8777  -3.6673  -2.4694  -2.1235  -2.0339  -1.7163  -1.6593
    -1.2646  -0.4653  -0.2317   0.1138   2.0320   2.6617   3.0232   3.0916
     4.7464   5.0893   5.3733   5.5704   5.6814   5.8087   5.9699   6.1066
     6.5351   6.9438   7.1722   7.5492   7.7734   7.9114   8.2661   8.3545
     8.5641   8.8038   9.1131   9.3034   9.7494   9.8691  10.0789  10.4721
    10.9166  11.0273  11.2133  11.3591  11.7000  11.8359  12.0962  12.4333
    12.5142  12.6560  12.6919  12.8848  13.0768  13.4248  13.4999  13.8220
    14.0944  14.1398  14.4178  14.4782  14.6438  14.8463  14.9549  15.0612
    15.0980  15.3023  15.4355  15.6319  15.9452  16.0499  16.2635  16.5325
    16.5886  16.9861  17.0778  17.1183

     the Fermi energy is     0.9445 ev

!    total energy              =    -243.80296961 Ry
     Harris-Foulkes estimate   =    -243.80289375 Ry
     estimated scf accuracy    <       0.00006177 Ry

     The total energy is the sum of the following terms:

     one-electron contribution =    -348.25689167 Ry
     hartree contribution      =     198.26848685 Ry
     xc contribution           =     -93.58617398 Ry
     ewald contribution        =      -0.22839082 Ry
     smearing contrib. (-TS)   =      -0.00000000 Ry

     convergence has been achieved in   7 iterations

     Writing output data file x0.save
 
     init_run     :      0.36s CPU      0.44s WALL (       1 calls)
     electrons    :      1.77s CPU      1.86s WALL (       1 calls)

     Called by init_run:
     wfcinit      :      0.04s CPU      0.04s WALL (       1 calls)
     potinit      :      0.07s CPU      0.08s WALL (       1 calls)

     Called by electrons:
     c_bands      :      0.87s CPU      0.89s WALL (       7 calls)
     sum_band     :      0.42s CPU      0.43s WALL (       7 calls)
     v_of_rho     :      0.22s CPU      0.23s WALL (       8 calls)
     newd         :      0.27s CPU      0.33s WALL (       8 calls)
     mix_rho      :      0.03s CPU      0.03s WALL (       7 calls)

     Called by c_bands:
     init_us_2    :      0.00s CPU      0.00s WALL (      15 calls)
     regterg      :      0.86s CPU      0.88s WALL (       7 calls)

     Called by sum_band:
     sum_band:bec :      0.00s CPU      0.00s WALL (       7 calls)
     addusdens    :      0.28s CPU      0.29s WALL (       7 calls)

     Called by *egterg:
     h_psi        :      0.44s CPU      0.45s WALL (      29 calls)
     s_psi        :      0.01s CPU      0.01s WALL (      29 calls)
     g_psi        :      0.00s CPU      0.00s WALL (      21 calls)
     rdiaghg      :      0.33s CPU      0.33s WALL (      28 calls)

     Called by h_psi:
     h_psi:pot    :      0.43s CPU      0.45s WALL (      29 calls)
     h_psi:calbec :      0.02s CPU      0.02s WALL (      29 calls)
     vloc_psi     :      0.40s CPU      0.42s WALL (      29 calls)
     add_vuspsi   :      0.01s CPU      0.01s WALL (      29 calls)

     General routines
     calbec       :      0.02s CPU      0.02s WALL (      36 calls)
     fft          :      0.23s CPU      0.23s WALL (     124 calls)
     ffts         :      0.01s CPU      0.01s WALL (      15 calls)
     fftw         :      0.43s CPU      0.44s WALL (    2184 calls)
     interpolate  :      0.04s CPU      0.04s WALL (      15 calls)
 
     Parallel routines
     fft_scatt_xy :      0.04s CPU      0.04s WALL (    2323 calls)
     fft_scatt_yz :      0.15s CPU      0.15s WALL (    2323 calls)
 
     PWSCF        :     4.16s CPU         5.06s WALL

 
   This run was terminated on:  18:56:10  22Jun2021            

=------------------------------------------------------------------------------=
   JOB DONE.
=------------------------------------------------------------------------------=
