
     Program PWSCF v.6.2 (svn rev. 14038) starts on 22Jun2021 at 18:56:52 

     This program is part of the open-source Quantum ESPRESSO suite
     for quantum simulation of materials; please cite
         "P. Giannozzi et al., J. Phys.:Condens. Matter 21 395502 (2009);
         "P. Giannozzi et al., J. Phys.:Condens. Matter 29 465901 (2017);
          URL http://www.quantum-espresso.org", 
     in publications or presentations arising from this work. More details at
     http://www.quantum-espresso.org/quote

     Parallel version (MPI), running on    12 processors

     MPI processes distributed on     1 nodes
     R & G space division:  proc/nbgrp/npool/nimage =      12
     Waiting for input...
     Reading input from standard input

     Current dimensions of program PWSCF are:
     Max number of different atomic species (ntypx) = 10
     Max number of k-points (npk) =  40000
     Max angular momentum in pseudopotentials (lmaxx) =  3
               file Ir.pbe-n-rrkjus_psl.0.2.3.UPF: wavefunction(s)  5D renormalized

     gamma-point specific algorithms are used

     Subspace diagonalization in iterative solution of the eigenvalue problem:
     a serial algorithm will be used

 
     Parallelization info
     --------------------
     sticks:   dense  smooth     PW     G-vecs:    dense   smooth      PW
     Min         353     140     34                17398     4383     546
     Max         356     144     36                17404     4390     556
     Sum        4257    1701    421               208801    52635    6619
 


     bravais-lattice index     =            0
     lattice parameter (alat)  =      13.3514  a.u.
     unit-cell volume          =    2380.0325 (a.u.)^3
     number of atoms/cell      =           25
     number of atomic types    =            4
     number of electrons       =        72.00
     number of Kohn-Sham states=          100
     kinetic-energy cutoff     =      30.0000  Ry
     charge density cutoff     =     300.0000  Ry
     convergence threshold     =      1.0E-04
     mixing beta               =       0.3000
     number of iterations used =            8  plain     mixing
     Exchange-correlation      = PBE ( 1  4  3  4 0 0)

     celldm(1)=  13.351425  celldm(2)=   0.000000  celldm(3)=   0.000000
     celldm(4)=   0.000000  celldm(5)=   0.000000  celldm(6)=   0.000000

     crystal axes: (cart. coord. in units of alat)
               a(1) = (   1.000000   0.000000   0.000000 )  
               a(2) = (   0.000000   1.000000   0.000000 )  
               a(3) = (   0.000000   0.000000   1.000000 )  

     reciprocal axes: (cart. coord. in units 2 pi/alat)
               b(1) = (  1.000000  0.000000  0.000000 )  
               b(2) = (  0.000000  1.000000  0.000000 )  
               b(3) = (  0.000000  0.000000  1.000000 )  


     PseudoPot. # 1 for C  read from file:
     /util/academic/espresso/6.2.1/pseudopotentials/upf_files/C.pbe-n-rrkjus_psl.0.1.UPF
     MD5 check sum: ab446d787031eba755f1d5ee46644bb0
     Pseudo is Ultrasoft + core correction, Zval =  4.0
     Generated using "atomic" code by A. Dal Corso v.5.0.2 svn rev. 9415
     Using radial grid of 1073 points,  4 beta functions with: 
                l(1) =   0
                l(2) =   0
                l(3) =   1
                l(4) =   1
     Q(r) pseudized with 0 coefficients 


     PseudoPot. # 2 for H  read from file:
     /util/academic/espresso/6.2.1/pseudopotentials/upf_files/H.pbe-rrkjus_psl.0.1.UPF
     MD5 check sum: bd57da0722753ddfd9833a65b40bb853
     Pseudo is Ultrasoft, Zval =  1.0
     Generated using "atomic" code by A. Dal Corso v.5.0.2 svn rev. 9415
     Using radial grid of  929 points,  2 beta functions with: 
                l(1) =   0
                l(2) =   0
     Q(r) pseudized with 0 coefficients 


     PseudoPot. # 3 for Ir read from file:
     /util/academic/espresso/6.2.1/pseudopotentials/upf_files/Ir.pbe-n-rrkjus_psl.0.2.3.UPF
     MD5 check sum: 0d5bc36db6a0bde07ee800c0d8fcbb77
     Pseudo is Ultrasoft + core correction, Zval =  9.0
     Generated using "atomic" code by A. Dal Corso v.5.0.2 svn rev. 9415
     Using radial grid of 1277 points,  6 beta functions with: 
                l(1) =   0
                l(2) =   0
                l(3) =   1
                l(4) =   1
                l(5) =   2
                l(6) =   2
     Q(r) pseudized with 0 coefficients 


     PseudoPot. # 4 for N  read from file:
     /util/academic/espresso/6.2.1/pseudopotentials/upf_files/N.pbe-n-rrkjus_psl.0.1.UPF
     MD5 check sum: ed8b6a90f28a53b7d71920e7015d2dd6
     Pseudo is Ultrasoft + core correction, Zval =  5.0
     Generated using "atomic" code by A. Dal Corso v.5.0.2 svn rev. 9415
     Using radial grid of 1085 points,  4 beta functions with: 
                l(1) =   0
                l(2) =   0
                l(3) =   1
                l(4) =   1
     Q(r) pseudized with 0 coefficients 


     atomic species   valence    mass     pseudopotential
        C              4.00    12.01000     C ( 1.00)
        H              1.00     1.00700     H ( 1.00)
        Ir             9.00   192.21700     Ir( 1.00)
        N              5.00    14.00600     N ( 1.00)

     No symmetry found



   Cartesian axes

     site n.     atom                  positions (alat units)
         1           Ir  tau(   1) = (   0.0001612   0.0039410   0.0012459  )
         2           N   tau(   2) = (   0.1584072  -0.1881278  -0.1607226  )
         3           N   tau(   3) = (  -0.2391378   0.0019652  -0.1678188  )
         4           N   tau(   4) = (   0.1097874   0.2117083  -0.1679819  )
         5           C   tau(   5) = (  -0.0777814   0.2277538   0.1529601  )
         6           C   tau(   6) = (   0.2122981  -0.0527113   0.1811524  )
         7           C   tau(   7) = (   0.2851132  -0.2761282  -0.0544172  )
         8           C   tau(   8) = (   0.3107954  -0.2130685   0.1295278  )
         9           C   tau(   9) = (  -0.1529320  -0.1763728   0.1346661  )
        10           C   tau(  10) = (   0.0731278   0.3812955  -0.0946499  )
        11           C   tau(  11) = (  -0.0118876   0.3932549   0.0847726  )
        12           C   tau(  12) = (  -0.3559893  -0.1321584  -0.1207767  )
        13           C   tau(  13) = (  -0.3161094  -0.2384898   0.0389656  )
        14           H   tau(  14) = (   0.2572263   0.0220801   0.3132066  )
        15           H   tau(  15) = (   0.4112607  -0.2718054   0.2314413  )
        16           H   tau(  16) = (   0.3732434  -0.3974599  -0.1019245  )
        17           H   tau(  17) = (   0.0759517   0.5077163  -0.2034471  )
        18           H   tau(  18) = (  -0.0174855   0.5371401   0.1498865  )
        19           H   tau(  19) = (  -0.1547958   0.2233610   0.2918628  )
        20           H   tau(  20) = (  -0.3955089  -0.3548597   0.0772782  )
        21           H   tau(  21) = (  -0.1216047  -0.2224764   0.2870691  )
        22           H   tau(  22) = (  -0.4613042  -0.1816429  -0.2284332  )
        23           H   tau(  23) = (   0.1206612  -0.2332258  -0.2879223  )
        24           H   tau(  24) = (   0.1411300   0.2214952  -0.3120437  )
        25           H   tau(  25) = (  -0.2657677   0.0752419  -0.2905125  )

     number of k points=     1  gaussian smearing, width (Ry)=  0.0100
                       cart. coord. in units 2pi/alat
        k(    1) = (   0.0000000   0.0000000   0.0000000), wk =   2.0000000

     Dense  grid:   104401 G-vectors     FFT dimensions: (  75,  75,  75)

     Smooth grid:    26318 G-vectors     FFT dimensions: (  48,  48,  48)

     Estimated max dynamical RAM per process >      46.16 MB

     Estimated total dynamical RAM >     553.92 MB

     Check: negative/imaginary core charge=   -0.000002    0.000000

     Initial potential from superposition of free atoms

     starting charge   71.99934, renormalised to   72.00000
     Starting wfc are   69 randomized atomic wfcs +   31 random wfc

     total cpu time spent up to now is        2.6 secs

     Self-consistent Calculation

     iteration #  1     ecut=    30.00 Ry     beta= 0.30
     Davidson diagonalization with overlap
     ethr =  1.00E-02,  avg # of iterations =  5.0

     total cpu time spent up to now is        3.0 secs

     total energy              =    -243.64732752 Ry
     Harris-Foulkes estimate   =    -244.95450302 Ry
     estimated scf accuracy    <       3.40890617 Ry

     iteration #  2     ecut=    30.00 Ry     beta= 0.30
     Davidson diagonalization with overlap
     ethr =  4.73E-03,  avg # of iterations =  1.0

     total cpu time spent up to now is        3.2 secs

     total energy              =    -243.76879216 Ry
     Harris-Foulkes estimate   =    -244.07158638 Ry
     estimated scf accuracy    <       0.86286953 Ry

     iteration #  3     ecut=    30.00 Ry     beta= 0.30
     Davidson diagonalization with overlap
     ethr =  1.20E-03,  avg # of iterations =  4.0

     total cpu time spent up to now is        3.5 secs

     total energy              =    -243.80937580 Ry
     Harris-Foulkes estimate   =    -243.91022594 Ry
     estimated scf accuracy    <       0.32627383 Ry

     iteration #  4     ecut=    30.00 Ry     beta= 0.30
     Davidson diagonalization with overlap
     ethr =  4.53E-04,  avg # of iterations =  3.0

     negative rho (up, down):  1.998E-07 0.000E+00

     total cpu time spent up to now is        3.7 secs

     total energy              =    -243.82883643 Ry
     Harris-Foulkes estimate   =    -243.84746625 Ry
     estimated scf accuracy    <       0.05480854 Ry

     iteration #  5     ecut=    30.00 Ry     beta= 0.30
     Davidson diagonalization with overlap
     ethr =  7.61E-05,  avg # of iterations =  6.0

     negative rho (up, down):  2.117E-07 0.000E+00

     total cpu time spent up to now is        4.0 secs

     total energy              =    -243.83792375 Ry
     Harris-Foulkes estimate   =    -243.83870673 Ry
     estimated scf accuracy    <       0.00468983 Ry

     iteration #  6     ecut=    30.00 Ry     beta= 0.30
     Davidson diagonalization with overlap
     ethr =  6.51E-06,  avg # of iterations =  2.0

     negative rho (up, down):  8.868E-08 0.000E+00

     total cpu time spent up to now is        4.3 secs

     total energy              =    -243.83824658 Ry
     Harris-Foulkes estimate   =    -243.83835102 Ry
     estimated scf accuracy    <       0.00094477 Ry

     iteration #  7     ecut=    30.00 Ry     beta= 0.30
     Davidson diagonalization with overlap
     ethr =  1.31E-06,  avg # of iterations =  2.0

     negative rho (up, down):  1.904E-08 0.000E+00

     total cpu time spent up to now is        4.5 secs

     total energy              =    -243.83833409 Ry
     Harris-Foulkes estimate   =    -243.83832164 Ry
     estimated scf accuracy    <       0.00015618 Ry

     iteration #  8     ecut=    30.00 Ry     beta= 0.30
     Davidson diagonalization with overlap
     ethr =  2.17E-07,  avg # of iterations =  2.0

     total cpu time spent up to now is        4.7 secs

     End of self-consistent calculation

          k = 0.0000 0.0000 0.0000 (  3310 PWs)   bands (ev):

   -18.3521 -18.0286 -17.9547 -14.4008 -14.1665 -13.8481 -11.5429 -10.6804
   -10.5771  -9.2800  -8.3977  -8.3211  -8.1253  -8.0390  -7.5681  -6.5745
    -5.8616  -5.8046  -5.5528  -5.2429  -5.0910  -4.8061  -4.3664  -4.2788
    -4.0111  -3.8643  -3.4631  -2.4037  -2.3369  -2.1925  -1.6812  -1.4148
    -1.3171  -0.4609  -0.3665   0.2358   1.9385   2.5916   3.0138   3.1401
     4.8773   5.1492   5.3728   5.4857   5.5870   5.7352   5.9469   6.2409
     6.6239   6.9296   7.0028   7.4844   7.7442   7.9348   8.2238   8.3127
     8.5283   8.5754   9.0611   9.2211   9.5113   9.8899  10.1180  10.4225
    10.7598  11.0294  11.1748  11.2788  11.5408  11.7174  11.8621  12.2278
    12.4668  12.6701  12.7632  12.8501  13.0053  13.1275  13.5482  13.9827
    14.0699  14.1831  14.3052  14.5071  14.5627  14.6791  14.8633  14.9624
    15.1591  15.3505  15.4091  15.6419  15.9237  16.0451  16.1262  16.3760
    16.5928  16.7862  16.9616  17.0488

     the Fermi energy is     1.0333 ev

!    total energy              =    -243.83840139 Ry
     Harris-Foulkes estimate   =    -243.83836162 Ry
     estimated scf accuracy    <       0.00002156 Ry

     The total energy is the sum of the following terms:

     one-electron contribution =    -343.45242731 Ry
     hartree contribution      =     195.86681159 Ry
     xc contribution           =     -93.33957177 Ry
     ewald contribution        =      -2.91321391 Ry
     smearing contrib. (-TS)   =      -0.00000000 Ry

     convergence has been achieved in   8 iterations

     Writing output data file x0.save
 
     init_run     :      0.39s CPU      0.44s WALL (       1 calls)
     electrons    :      2.05s CPU      2.15s WALL (       1 calls)

     Called by init_run:
     wfcinit      :      0.04s CPU      0.04s WALL (       1 calls)
     potinit      :      0.07s CPU      0.08s WALL (       1 calls)

     Called by electrons:
     c_bands      :      1.00s CPU      1.03s WALL (       8 calls)
     sum_band     :      0.49s CPU      0.50s WALL (       8 calls)
     v_of_rho     :      0.25s CPU      0.26s WALL (       9 calls)
     newd         :      0.32s CPU      0.33s WALL (       9 calls)
     mix_rho      :      0.03s CPU      0.03s WALL (       8 calls)

     Called by c_bands:
     init_us_2    :      0.01s CPU      0.01s WALL (      17 calls)
     regterg      :      0.98s CPU      1.01s WALL (       8 calls)

     Called by sum_band:
     sum_band:bec :      0.00s CPU      0.00s WALL (       8 calls)
     addusdens    :      0.34s CPU      0.35s WALL (       8 calls)

     Called by *egterg:
     h_psi        :      0.47s CPU      0.49s WALL (      34 calls)
     s_psi        :      0.01s CPU      0.01s WALL (      34 calls)
     g_psi        :      0.00s CPU      0.00s WALL (      25 calls)
     rdiaghg      :      0.40s CPU      0.40s WALL (      33 calls)

     Called by h_psi:
     h_psi:pot    :      0.47s CPU      0.49s WALL (      34 calls)
     h_psi:calbec :      0.02s CPU      0.02s WALL (      34 calls)
     vloc_psi     :      0.44s CPU      0.46s WALL (      34 calls)
     add_vuspsi   :      0.01s CPU      0.01s WALL (      34 calls)

     General routines
     calbec       :      0.02s CPU      0.03s WALL (      42 calls)
     fft          :      0.26s CPU      0.26s WALL (     140 calls)
     ffts         :      0.01s CPU      0.01s WALL (      17 calls)
     fftw         :      0.47s CPU      0.49s WALL (    2454 calls)
     interpolate  :      0.04s CPU      0.04s WALL (      17 calls)
 
     Parallel routines
     fft_scatt_xy :      0.04s CPU      0.04s WALL (    2611 calls)
     fft_scatt_yz :      0.14s CPU      0.14s WALL (    2611 calls)
 
     PWSCF        :     4.16s CPU         5.21s WALL

 
   This run was terminated on:  18:56:57  22Jun2021            

=------------------------------------------------------------------------------=
   JOB DONE.
=------------------------------------------------------------------------------=
