
     Program PWSCF v.6.2 (svn rev. 14038) starts on 22Jun2021 at 18:52:45 

     This program is part of the open-source Quantum ESPRESSO suite
     for quantum simulation of materials; please cite
         "P. Giannozzi et al., J. Phys.:Condens. Matter 21 395502 (2009);
         "P. Giannozzi et al., J. Phys.:Condens. Matter 29 465901 (2017);
          URL http://www.quantum-espresso.org", 
     in publications or presentations arising from this work. More details at
     http://www.quantum-espresso.org/quote

     Parallel version (MPI), running on    12 processors

     MPI processes distributed on     1 nodes
     R & G space division:  proc/nbgrp/npool/nimage =      12
     Waiting for input...
     Reading input from standard input

     Current dimensions of program PWSCF are:
     Max number of different atomic species (ntypx) = 10
     Max number of k-points (npk) =  40000
     Max angular momentum in pseudopotentials (lmaxx) =  3
               file Ir.pbe-n-rrkjus_psl.0.2.3.UPF: wavefunction(s)  5D renormalized

     gamma-point specific algorithms are used

     Subspace diagonalization in iterative solution of the eigenvalue problem:
     a serial algorithm will be used

 
     Parallelization info
     --------------------
     sticks:   dense  smooth     PW     G-vecs:    dense   smooth      PW
     Min         353     140     34                17398     4383     546
     Max         356     144     36                17404     4390     556
     Sum        4257    1701    421               208801    52635    6619
 


     bravais-lattice index     =            0
     lattice parameter (alat)  =      13.3514  a.u.
     unit-cell volume          =    2380.0325 (a.u.)^3
     number of atoms/cell      =           25
     number of atomic types    =            4
     number of electrons       =        72.00
     number of Kohn-Sham states=          100
     kinetic-energy cutoff     =      30.0000  Ry
     charge density cutoff     =     300.0000  Ry
     convergence threshold     =      1.0E-04
     mixing beta               =       0.3000
     number of iterations used =            8  plain     mixing
     Exchange-correlation      = PBE ( 1  4  3  4 0 0)

     celldm(1)=  13.351425  celldm(2)=   0.000000  celldm(3)=   0.000000
     celldm(4)=   0.000000  celldm(5)=   0.000000  celldm(6)=   0.000000

     crystal axes: (cart. coord. in units of alat)
               a(1) = (   1.000000   0.000000   0.000000 )  
               a(2) = (   0.000000   1.000000   0.000000 )  
               a(3) = (   0.000000   0.000000   1.000000 )  

     reciprocal axes: (cart. coord. in units 2 pi/alat)
               b(1) = (  1.000000  0.000000  0.000000 )  
               b(2) = (  0.000000  1.000000  0.000000 )  
               b(3) = (  0.000000  0.000000  1.000000 )  


     PseudoPot. # 1 for C  read from file:
     /util/academic/espresso/6.2.1/pseudopotentials/upf_files/C.pbe-n-rrkjus_psl.0.1.UPF
     MD5 check sum: ab446d787031eba755f1d5ee46644bb0
     Pseudo is Ultrasoft + core correction, Zval =  4.0
     Generated using "atomic" code by A. Dal Corso v.5.0.2 svn rev. 9415
     Using radial grid of 1073 points,  4 beta functions with: 
                l(1) =   0
                l(2) =   0
                l(3) =   1
                l(4) =   1
     Q(r) pseudized with 0 coefficients 


     PseudoPot. # 2 for H  read from file:
     /util/academic/espresso/6.2.1/pseudopotentials/upf_files/H.pbe-rrkjus_psl.0.1.UPF
     MD5 check sum: bd57da0722753ddfd9833a65b40bb853
     Pseudo is Ultrasoft, Zval =  1.0
     Generated using "atomic" code by A. Dal Corso v.5.0.2 svn rev. 9415
     Using radial grid of  929 points,  2 beta functions with: 
                l(1) =   0
                l(2) =   0
     Q(r) pseudized with 0 coefficients 


     PseudoPot. # 3 for Ir read from file:
     /util/academic/espresso/6.2.1/pseudopotentials/upf_files/Ir.pbe-n-rrkjus_psl.0.2.3.UPF
     MD5 check sum: 0d5bc36db6a0bde07ee800c0d8fcbb77
     Pseudo is Ultrasoft + core correction, Zval =  9.0
     Generated using "atomic" code by A. Dal Corso v.5.0.2 svn rev. 9415
     Using radial grid of 1277 points,  6 beta functions with: 
                l(1) =   0
                l(2) =   0
                l(3) =   1
                l(4) =   1
                l(5) =   2
                l(6) =   2
     Q(r) pseudized with 0 coefficients 


     PseudoPot. # 4 for N  read from file:
     /util/academic/espresso/6.2.1/pseudopotentials/upf_files/N.pbe-n-rrkjus_psl.0.1.UPF
     MD5 check sum: ed8b6a90f28a53b7d71920e7015d2dd6
     Pseudo is Ultrasoft + core correction, Zval =  5.0
     Generated using "atomic" code by A. Dal Corso v.5.0.2 svn rev. 9415
     Using radial grid of 1085 points,  4 beta functions with: 
                l(1) =   0
                l(2) =   0
                l(3) =   1
                l(4) =   1
     Q(r) pseudized with 0 coefficients 


     atomic species   valence    mass     pseudopotential
        C              4.00    12.01000     C ( 1.00)
        H              1.00     1.00700     H ( 1.00)
        Ir             9.00   192.21700     Ir( 1.00)
        N              5.00    14.00600     N ( 1.00)

     No symmetry found



   Cartesian axes

     site n.     atom                  positions (alat units)
         1           Ir  tau(   1) = (  -0.0001300   0.0020362  -0.0006651  )
         2           N   tau(   2) = (   0.1319949  -0.2210510  -0.1640951  )
         3           N   tau(   3) = (  -0.2533774  -0.0041676  -0.1593750  )
         4           N   tau(   4) = (   0.1369264   0.2197837  -0.1633205  )
         5           C   tau(   5) = (  -0.0684095   0.2228338   0.1512619  )
         6           C   tau(   6) = (   0.2184402  -0.0487433   0.1543583  )
         7           C   tau(   7) = (   0.2839225  -0.2800755  -0.0769592  )
         8           C   tau(   8) = (   0.3316519  -0.1908013   0.0908989  )
         9           C   tau(   9) = (  -0.1576518  -0.1688012   0.1566191  )
        10           C   tau(  10) = (   0.0895283   0.3845205  -0.0879090  )
        11           C   tau(  11) = (  -0.0106904   0.3978784   0.0897888  )
        12           C   tau(  12) = (  -0.3806137  -0.1179018  -0.0928423  )
        13           C   tau(  13) = (  -0.3277429  -0.2187928   0.0837264  )
        14           H   tau(  14) = (   0.2521479   0.0235943   0.2849206  )
        15           H   tau(  15) = (   0.4429642  -0.2350993   0.1859703  )
        16           H   tau(  16) = (   0.3819179  -0.3920987  -0.1218755  )
        17           H   tau(  17) = (   0.1238575   0.5013218  -0.1881516  )
        18           H   tau(  18) = (  -0.0273678   0.5302679   0.1650775  )
        19           H   tau(  19) = (  -0.1600262   0.2156176   0.2748300  )
        20           H   tau(  20) = (  -0.2947653  -0.3831396   0.0978819  )
        21           H   tau(  21) = (  -0.1154833  -0.2212785   0.2939744  )
        22           H   tau(  22) = (  -0.4964424  -0.1283185  -0.1966719  )
        23           H   tau(  23) = (   0.0956087  -0.3020714  -0.2769024  )
        24           H   tau(  24) = (   0.1677955   0.2298688  -0.3020078  )
        25           H   tau(  25) = (  -0.3044090   0.0853894  -0.2608453  )

     number of k points=     1  gaussian smearing, width (Ry)=  0.0100
                       cart. coord. in units 2pi/alat
        k(    1) = (   0.0000000   0.0000000   0.0000000), wk =   2.0000000

     Dense  grid:   104401 G-vectors     FFT dimensions: (  75,  75,  75)

     Smooth grid:    26318 G-vectors     FFT dimensions: (  48,  48,  48)

     Estimated max dynamical RAM per process >      46.16 MB

     Estimated total dynamical RAM >     553.92 MB

     Check: negative/imaginary core charge=   -0.000002    0.000000

     Initial potential from superposition of free atoms

     starting charge   71.99934, renormalised to   72.00000
     Starting wfc are   69 randomized atomic wfcs +   31 random wfc

     total cpu time spent up to now is        3.1 secs

     Self-consistent Calculation

     iteration #  1     ecut=    30.00 Ry     beta= 0.30
     Davidson diagonalization with overlap
     ethr =  1.00E-02,  avg # of iterations =  5.0

     total cpu time spent up to now is        3.5 secs

     total energy              =    -243.51580807 Ry
     Harris-Foulkes estimate   =    -244.79039811 Ry
     estimated scf accuracy    <       3.35200515 Ry

     iteration #  2     ecut=    30.00 Ry     beta= 0.30
     Davidson diagonalization with overlap
     ethr =  4.66E-03,  avg # of iterations =  1.0

     total cpu time spent up to now is        3.7 secs

     total energy              =    -243.60732634 Ry
     Harris-Foulkes estimate   =    -243.90983401 Ry
     estimated scf accuracy    <       0.85160159 Ry

     iteration #  3     ecut=    30.00 Ry     beta= 0.30
     Davidson diagonalization with overlap
     ethr =  1.18E-03,  avg # of iterations =  4.0

     total cpu time spent up to now is        3.9 secs

     total energy              =    -243.64059940 Ry
     Harris-Foulkes estimate   =    -243.74753880 Ry
     estimated scf accuracy    <       0.34473347 Ry

     iteration #  4     ecut=    30.00 Ry     beta= 0.30
     Davidson diagonalization with overlap
     ethr =  4.79E-04,  avg # of iterations =  2.0

     total cpu time spent up to now is        4.2 secs

     total energy              =    -243.66548411 Ry
     Harris-Foulkes estimate   =    -243.68342993 Ry
     estimated scf accuracy    <       0.05542871 Ry

     iteration #  5     ecut=    30.00 Ry     beta= 0.30
     Davidson diagonalization with overlap
     ethr =  7.70E-05,  avg # of iterations =  6.0

     total cpu time spent up to now is        4.5 secs

     total energy              =    -243.67436808 Ry
     Harris-Foulkes estimate   =    -243.67548156 Ry
     estimated scf accuracy    <       0.00587455 Ry

     iteration #  6     ecut=    30.00 Ry     beta= 0.30
     Davidson diagonalization with overlap
     ethr =  8.16E-06,  avg # of iterations =  2.0

     total cpu time spent up to now is        4.7 secs

     total energy              =    -243.67475917 Ry
     Harris-Foulkes estimate   =    -243.67485616 Ry
     estimated scf accuracy    <       0.00093431 Ry

     iteration #  7     ecut=    30.00 Ry     beta= 0.30
     Davidson diagonalization with overlap
     ethr =  1.30E-06,  avg # of iterations =  3.0

     total cpu time spent up to now is        4.9 secs

     End of self-consistent calculation

          k = 0.0000 0.0000 0.0000 (  3310 PWs)   bands (ev):

   -18.5949 -18.3086 -17.9762 -14.5144 -14.1581 -13.8969 -11.5829 -10.8023
   -10.5517  -9.1340  -8.5235  -8.4516  -8.3393  -7.6820  -7.5923  -6.4008
    -6.1713  -5.9255  -5.6065  -5.2240  -4.9302  -4.7373  -4.2132  -4.1607
    -4.1112  -3.5927  -3.3717  -2.4883  -2.3222  -2.2207  -1.6042  -1.4273
    -0.9756  -0.3294  -0.2172   0.7260   1.9160   2.5680   2.9911   3.2259
     4.3308   5.1702   5.2549   5.5156   5.6903   5.8308   5.8890   6.1162
     6.6523   6.8869   6.9515   7.3851   7.7934   7.8764   8.2757   8.3991
     8.6970   8.9970   9.1249   9.3277   9.4440   9.5597   9.9694  10.3956
    10.5962  10.9123  10.9722  11.2575  11.5298  11.7482  11.8634  12.2800
    12.3282  12.6609  12.6998  12.9793  13.1628  13.3536  13.4555  13.8663
    13.9969  14.1439  14.4153  14.6868  14.8251  14.8887  15.0064  15.1211
    15.2307  15.2395  15.5675  15.6742  15.7046  15.9413  16.4576  16.5593
    16.7632  16.8327  16.9611  17.0193

     the Fermi energy is     1.3220 ev

!    total energy              =    -243.67492401 Ry
     Harris-Foulkes estimate   =    -243.67486159 Ry
     estimated scf accuracy    <       0.00009235 Ry

     The total energy is the sum of the following terms:

     one-electron contribution =    -346.86877556 Ry
     hartree contribution      =     197.66626788 Ry
     xc contribution           =     -93.44779626 Ry
     ewald contribution        =      -1.02462008 Ry
     smearing contrib. (-TS)   =      -0.00000000 Ry

     convergence has been achieved in   7 iterations

     Writing output data file x0.save
 
     init_run     :      0.39s CPU      0.43s WALL (       1 calls)
     electrons    :      1.78s CPU      1.87s WALL (       1 calls)

     Called by init_run:
     wfcinit      :      0.03s CPU      0.04s WALL (       1 calls)
     potinit      :      0.07s CPU      0.08s WALL (       1 calls)

     Called by electrons:
     c_bands      :      0.91s CPU      0.93s WALL (       7 calls)
     sum_band     :      0.41s CPU      0.42s WALL (       7 calls)
     v_of_rho     :      0.22s CPU      0.22s WALL (       8 calls)
     newd         :      0.26s CPU      0.28s WALL (       8 calls)
     mix_rho      :      0.02s CPU      0.03s WALL (       7 calls)

     Called by c_bands:
     init_us_2    :      0.00s CPU      0.00s WALL (      15 calls)
     regterg      :      0.89s CPU      0.92s WALL (       7 calls)

     Called by sum_band:
     sum_band:bec :      0.00s CPU      0.00s WALL (       7 calls)
     addusdens    :      0.27s CPU      0.28s WALL (       7 calls)

     Called by *egterg:
     h_psi        :      0.43s CPU      0.45s WALL (      31 calls)
     s_psi        :      0.01s CPU      0.01s WALL (      31 calls)
     g_psi        :      0.00s CPU      0.00s WALL (      23 calls)
     rdiaghg      :      0.37s CPU      0.37s WALL (      30 calls)

     Called by h_psi:
     h_psi:pot    :      0.43s CPU      0.44s WALL (      31 calls)
     h_psi:calbec :      0.02s CPU      0.02s WALL (      31 calls)
     vloc_psi     :      0.40s CPU      0.42s WALL (      31 calls)
     add_vuspsi   :      0.01s CPU      0.01s WALL (      31 calls)

     General routines
     calbec       :      0.02s CPU      0.02s WALL (      38 calls)
     fft          :      0.23s CPU      0.24s WALL (     124 calls)
     ffts         :      0.01s CPU      0.01s WALL (      15 calls)
     fftw         :      0.43s CPU      0.44s WALL (    2180 calls)
     interpolate  :      0.04s CPU      0.04s WALL (      15 calls)
 
     Parallel routines
     fft_scatt_xy :      0.04s CPU      0.04s WALL (    2319 calls)
     fft_scatt_yz :      0.14s CPU      0.14s WALL (    2319 calls)
 
     PWSCF        :     3.68s CPU         5.44s WALL

 
   This run was terminated on:  18:52:50  22Jun2021            

=------------------------------------------------------------------------------=
   JOB DONE.
=------------------------------------------------------------------------------=
