
     Program PWSCF v.6.2 (svn rev. 14038) starts on 22Jun2021 at 18:55:34 

     This program is part of the open-source Quantum ESPRESSO suite
     for quantum simulation of materials; please cite
         "P. Giannozzi et al., J. Phys.:Condens. Matter 21 395502 (2009);
         "P. Giannozzi et al., J. Phys.:Condens. Matter 29 465901 (2017);
          URL http://www.quantum-espresso.org", 
     in publications or presentations arising from this work. More details at
     http://www.quantum-espresso.org/quote

     Parallel version (MPI), running on    12 processors

     MPI processes distributed on     1 nodes
     R & G space division:  proc/nbgrp/npool/nimage =      12
     Waiting for input...
     Reading input from standard input

     Current dimensions of program PWSCF are:
     Max number of different atomic species (ntypx) = 10
     Max number of k-points (npk) =  40000
     Max angular momentum in pseudopotentials (lmaxx) =  3
               file Ir.pbe-n-rrkjus_psl.0.2.3.UPF: wavefunction(s)  5D renormalized

     gamma-point specific algorithms are used

     Subspace diagonalization in iterative solution of the eigenvalue problem:
     a serial algorithm will be used

 
     Parallelization info
     --------------------
     sticks:   dense  smooth     PW     G-vecs:    dense   smooth      PW
     Min         353     140     34                17398     4383     546
     Max         356     144     36                17404     4390     556
     Sum        4257    1701    421               208801    52635    6619
 


     bravais-lattice index     =            0
     lattice parameter (alat)  =      13.3514  a.u.
     unit-cell volume          =    2380.0325 (a.u.)^3
     number of atoms/cell      =           25
     number of atomic types    =            4
     number of electrons       =        72.00
     number of Kohn-Sham states=          100
     kinetic-energy cutoff     =      30.0000  Ry
     charge density cutoff     =     300.0000  Ry
     convergence threshold     =      1.0E-04
     mixing beta               =       0.3000
     number of iterations used =            8  plain     mixing
     Exchange-correlation      = PBE ( 1  4  3  4 0 0)

     celldm(1)=  13.351425  celldm(2)=   0.000000  celldm(3)=   0.000000
     celldm(4)=   0.000000  celldm(5)=   0.000000  celldm(6)=   0.000000

     crystal axes: (cart. coord. in units of alat)
               a(1) = (   1.000000   0.000000   0.000000 )  
               a(2) = (   0.000000   1.000000   0.000000 )  
               a(3) = (   0.000000   0.000000   1.000000 )  

     reciprocal axes: (cart. coord. in units 2 pi/alat)
               b(1) = (  1.000000  0.000000  0.000000 )  
               b(2) = (  0.000000  1.000000  0.000000 )  
               b(3) = (  0.000000  0.000000  1.000000 )  


     PseudoPot. # 1 for C  read from file:
     /util/academic/espresso/6.2.1/pseudopotentials/upf_files/C.pbe-n-rrkjus_psl.0.1.UPF
     MD5 check sum: ab446d787031eba755f1d5ee46644bb0
     Pseudo is Ultrasoft + core correction, Zval =  4.0
     Generated using "atomic" code by A. Dal Corso v.5.0.2 svn rev. 9415
     Using radial grid of 1073 points,  4 beta functions with: 
                l(1) =   0
                l(2) =   0
                l(3) =   1
                l(4) =   1
     Q(r) pseudized with 0 coefficients 


     PseudoPot. # 2 for H  read from file:
     /util/academic/espresso/6.2.1/pseudopotentials/upf_files/H.pbe-rrkjus_psl.0.1.UPF
     MD5 check sum: bd57da0722753ddfd9833a65b40bb853
     Pseudo is Ultrasoft, Zval =  1.0
     Generated using "atomic" code by A. Dal Corso v.5.0.2 svn rev. 9415
     Using radial grid of  929 points,  2 beta functions with: 
                l(1) =   0
                l(2) =   0
     Q(r) pseudized with 0 coefficients 


     PseudoPot. # 3 for Ir read from file:
     /util/academic/espresso/6.2.1/pseudopotentials/upf_files/Ir.pbe-n-rrkjus_psl.0.2.3.UPF
     MD5 check sum: 0d5bc36db6a0bde07ee800c0d8fcbb77
     Pseudo is Ultrasoft + core correction, Zval =  9.0
     Generated using "atomic" code by A. Dal Corso v.5.0.2 svn rev. 9415
     Using radial grid of 1277 points,  6 beta functions with: 
                l(1) =   0
                l(2) =   0
                l(3) =   1
                l(4) =   1
                l(5) =   2
                l(6) =   2
     Q(r) pseudized with 0 coefficients 


     PseudoPot. # 4 for N  read from file:
     /util/academic/espresso/6.2.1/pseudopotentials/upf_files/N.pbe-n-rrkjus_psl.0.1.UPF
     MD5 check sum: ed8b6a90f28a53b7d71920e7015d2dd6
     Pseudo is Ultrasoft + core correction, Zval =  5.0
     Generated using "atomic" code by A. Dal Corso v.5.0.2 svn rev. 9415
     Using radial grid of 1085 points,  4 beta functions with: 
                l(1) =   0
                l(2) =   0
                l(3) =   1
                l(4) =   1
     Q(r) pseudized with 0 coefficients 


     atomic species   valence    mass     pseudopotential
        C              4.00    12.01000     C ( 1.00)
        H              1.00     1.00700     H ( 1.00)
        Ir             9.00   192.21700     Ir( 1.00)
        N              5.00    14.00600     N ( 1.00)

     No symmetry found



   Cartesian axes

     site n.     atom                  positions (alat units)
         1           Ir  tau(   1) = (   0.0011237   0.0034316   0.0009081  )
         2           N   tau(   2) = (   0.1469566  -0.2000487  -0.1683013  )
         3           N   tau(   3) = (  -0.2371016   0.0063451  -0.1674717  )
         4           N   tau(   4) = (   0.1157554   0.2126838  -0.1586046  )
         5           C   tau(   5) = (  -0.0846904   0.2275078   0.1522192  )
         6           C   tau(   6) = (   0.2044319  -0.0506863   0.1834475  )
         7           C   tau(   7) = (   0.2827670  -0.2703967  -0.0642543  )
         8           C   tau(   8) = (   0.3032892  -0.2052815   0.1283694  )
         9           C   tau(   9) = (  -0.1507668  -0.1768686   0.1355919  )
        10           C   tau(  10) = (   0.0710595   0.3796836  -0.0947808  )
        11           C   tau(  11) = (  -0.0063885   0.3941572   0.0858402  )
        12           C   tau(  12) = (  -0.3581871  -0.1281750  -0.1147604  )
        13           C   tau(  13) = (  -0.3026016  -0.2402822   0.0404785  )
        14           H   tau(  14) = (   0.2618070   0.0401543   0.3073463  )
        15           H   tau(  15) = (   0.4024582  -0.2829320   0.2112155  )
        16           H   tau(  16) = (   0.3549819  -0.3948385  -0.1267902  )
        17           H   tau(  17) = (   0.0940801   0.5059045  -0.1970921  )
        18           H   tau(  18) = (  -0.0500641   0.5266427   0.1600886  )
        19           H   tau(  19) = (  -0.1422266   0.2376826   0.2943783  )
        20           H   tau(  20) = (  -0.3941926  -0.3257972   0.1178395  )
        21           H   tau(  21) = (  -0.1344701  -0.2330621   0.2855301  )
        22           H   tau(  22) = (  -0.4867101  -0.1502832  -0.2030831  )
        23           H   tau(  23) = (   0.1281265  -0.2734807  -0.2894963  )
        24           H   tau(  24) = (   0.1550776   0.2045825  -0.3015800  )
        25           H   tau(  25) = (  -0.2695607   0.0653466  -0.2966594  )

     number of k points=     1  gaussian smearing, width (Ry)=  0.0100
                       cart. coord. in units 2pi/alat
        k(    1) = (   0.0000000   0.0000000   0.0000000), wk =   2.0000000

     Dense  grid:   104401 G-vectors     FFT dimensions: (  75,  75,  75)

     Smooth grid:    26318 G-vectors     FFT dimensions: (  48,  48,  48)

     Estimated max dynamical RAM per process >      46.16 MB

     Estimated total dynamical RAM >     553.92 MB

     Check: negative/imaginary core charge=   -0.000002    0.000000

     Initial potential from superposition of free atoms

     starting charge   71.99934, renormalised to   72.00000
     Starting wfc are   69 randomized atomic wfcs +   31 random wfc

     total cpu time spent up to now is        2.4 secs

     Self-consistent Calculation

     iteration #  1     ecut=    30.00 Ry     beta= 0.30
     Davidson diagonalization with overlap
     ethr =  1.00E-02,  avg # of iterations =  5.0

     total cpu time spent up to now is        2.8 secs

     total energy              =    -243.64143408 Ry
     Harris-Foulkes estimate   =    -244.92249918 Ry
     estimated scf accuracy    <       3.35802534 Ry

     iteration #  2     ecut=    30.00 Ry     beta= 0.30
     Davidson diagonalization with overlap
     ethr =  4.66E-03,  avg # of iterations =  1.0

     total cpu time spent up to now is        3.0 secs

     total energy              =    -243.73897748 Ry
     Harris-Foulkes estimate   =    -244.02753836 Ry
     estimated scf accuracy    <       0.80672965 Ry

     iteration #  3     ecut=    30.00 Ry     beta= 0.30
     Davidson diagonalization with overlap
     ethr =  1.12E-03,  avg # of iterations =  4.0

     total cpu time spent up to now is        3.2 secs

     total energy              =    -243.77482553 Ry
     Harris-Foulkes estimate   =    -243.87164020 Ry
     estimated scf accuracy    <       0.31768252 Ry

     iteration #  4     ecut=    30.00 Ry     beta= 0.30
     Davidson diagonalization with overlap
     ethr =  4.41E-04,  avg # of iterations =  1.0

     negative rho (up, down):  2.109E-07 0.000E+00

     total cpu time spent up to now is        3.4 secs

     total energy              =    -243.79340249 Ry
     Harris-Foulkes estimate   =    -243.81246129 Ry
     estimated scf accuracy    <       0.05556955 Ry

     iteration #  5     ecut=    30.00 Ry     beta= 0.30
     Davidson diagonalization with overlap
     ethr =  7.72E-05,  avg # of iterations =  6.0

     negative rho (up, down):  1.113E-07 0.000E+00

     total cpu time spent up to now is        3.8 secs

     total energy              =    -243.80328703 Ry
     Harris-Foulkes estimate   =    -243.80392338 Ry
     estimated scf accuracy    <       0.00424651 Ry

     iteration #  6     ecut=    30.00 Ry     beta= 0.30
     Davidson diagonalization with overlap
     ethr =  5.90E-06,  avg # of iterations =  2.0

     negative rho (up, down):  4.096E-08 0.000E+00

     total cpu time spent up to now is        4.0 secs

     total energy              =    -243.80348919 Ry
     Harris-Foulkes estimate   =    -243.80360201 Ry
     estimated scf accuracy    <       0.00091195 Ry

     iteration #  7     ecut=    30.00 Ry     beta= 0.30
     Davidson diagonalization with overlap
     ethr =  1.27E-06,  avg # of iterations =  1.0

     total cpu time spent up to now is        4.2 secs

     End of self-consistent calculation

          k = 0.0000 0.0000 0.0000 (  3310 PWs)   bands (ev):

   -18.5732 -18.1984 -17.8815 -14.4268 -14.0863 -14.0084 -11.4383 -10.7852
   -10.4972  -9.1882  -8.5171  -8.2606  -8.2273  -7.9813  -7.6515  -6.4725
    -6.0803  -5.8120  -5.4389  -5.3064  -5.0806  -4.8404  -4.3617  -4.1200
    -4.0751  -3.8633  -3.5943  -2.5045  -2.1453  -2.0235  -1.6999  -1.6391
    -1.2790  -0.4506  -0.2613   0.0893   2.0003   2.6003   2.9972   3.0826
     4.7798   5.0564   5.4061   5.5237   5.6014   5.7665   5.9403   6.0446
     6.5508   6.8808   7.1523   7.4680   7.7660   7.8506   8.2012   8.3253
     8.5106   8.8339   9.1051   9.1958   9.7002   9.7960  10.0302  10.4621
    10.9204  11.0036  11.2203  11.2735  11.5755  11.7578  12.0398  12.3248
    12.4467  12.5383  12.6436  12.8086  12.9308  13.3764  13.4528  13.7733
    14.0289  14.1071  14.4007  14.4460  14.6587  14.8576  14.9109  15.0491
    15.0794  15.2428  15.3799  15.6354  15.9016  15.9731  16.1963  16.5464
    16.6232  16.9873  17.0414  17.0889

     the Fermi energy is     0.9550 ev

!    total energy              =    -243.80364261 Ry
     Harris-Foulkes estimate   =    -243.80356953 Ry
     estimated scf accuracy    <       0.00006556 Ry

     The total energy is the sum of the following terms:

     one-electron contribution =    -345.97859576 Ry
     hartree contribution      =     197.11228709 Ry
     xc contribution           =     -93.40531256 Ry
     ewald contribution        =      -1.53202137 Ry
     smearing contrib. (-TS)   =      -0.00000000 Ry

     convergence has been achieved in   7 iterations

     Writing output data file x0.save
 
     init_run     :      0.36s CPU      0.57s WALL (       1 calls)
     electrons    :      1.77s CPU      1.87s WALL (       1 calls)

     Called by init_run:
     wfcinit      :      0.04s CPU      0.05s WALL (       1 calls)
     potinit      :      0.07s CPU      0.08s WALL (       1 calls)

     Called by electrons:
     c_bands      :      0.87s CPU      0.89s WALL (       7 calls)
     sum_band     :      0.42s CPU      0.43s WALL (       7 calls)
     v_of_rho     :      0.22s CPU      0.23s WALL (       8 calls)
     newd         :      0.28s CPU      0.47s WALL (       8 calls)
     mix_rho      :      0.03s CPU      0.03s WALL (       7 calls)

     Called by c_bands:
     init_us_2    :      0.00s CPU      0.00s WALL (      15 calls)
     regterg      :      0.86s CPU      0.88s WALL (       7 calls)

     Called by sum_band:
     sum_band:bec :      0.00s CPU      0.00s WALL (       7 calls)
     addusdens    :      0.28s CPU      0.29s WALL (       7 calls)

     Called by *egterg:
     h_psi        :      0.45s CPU      0.46s WALL (      28 calls)
     s_psi        :      0.01s CPU      0.01s WALL (      28 calls)
     g_psi        :      0.00s CPU      0.00s WALL (      20 calls)
     rdiaghg      :      0.32s CPU      0.32s WALL (      27 calls)

     Called by h_psi:
     h_psi:pot    :      0.45s CPU      0.46s WALL (      28 calls)
     h_psi:calbec :      0.02s CPU      0.02s WALL (      28 calls)
     vloc_psi     :      0.42s CPU      0.43s WALL (      28 calls)
     add_vuspsi   :      0.01s CPU      0.01s WALL (      28 calls)

     General routines
     calbec       :      0.02s CPU      0.02s WALL (      35 calls)
     fft          :      0.24s CPU      0.24s WALL (     124 calls)
     ffts         :      0.01s CPU      0.01s WALL (      15 calls)
     fftw         :      0.44s CPU      0.46s WALL (    2188 calls)
     interpolate  :      0.03s CPU      0.04s WALL (      15 calls)
 
     Parallel routines
     fft_scatt_xy :      0.04s CPU      0.04s WALL (    2327 calls)
     fft_scatt_yz :      0.17s CPU      0.18s WALL (    2327 calls)
 
     PWSCF        :     3.72s CPU         4.94s WALL

 
   This run was terminated on:  18:55:39  22Jun2021            

=------------------------------------------------------------------------------=
   JOB DONE.
=------------------------------------------------------------------------------=
