
     Program PWSCF v.6.2 (svn rev. 14038) starts on 22Jun2021 at 18:52:18 

     This program is part of the open-source Quantum ESPRESSO suite
     for quantum simulation of materials; please cite
         "P. Giannozzi et al., J. Phys.:Condens. Matter 21 395502 (2009);
         "P. Giannozzi et al., J. Phys.:Condens. Matter 29 465901 (2017);
          URL http://www.quantum-espresso.org", 
     in publications or presentations arising from this work. More details at
     http://www.quantum-espresso.org/quote

     Parallel version (MPI), running on    12 processors

     MPI processes distributed on     1 nodes
     R & G space division:  proc/nbgrp/npool/nimage =      12
     Waiting for input...
     Reading input from standard input

     Current dimensions of program PWSCF are:
     Max number of different atomic species (ntypx) = 10
     Max number of k-points (npk) =  40000
     Max angular momentum in pseudopotentials (lmaxx) =  3
               file Ir.pbe-n-rrkjus_psl.0.2.3.UPF: wavefunction(s)  5D renormalized

     gamma-point specific algorithms are used

     Subspace diagonalization in iterative solution of the eigenvalue problem:
     a serial algorithm will be used

 
     Parallelization info
     --------------------
     sticks:   dense  smooth     PW     G-vecs:    dense   smooth      PW
     Min         353     140     34                17398     4383     546
     Max         356     144     36                17404     4390     556
     Sum        4257    1701    421               208801    52635    6619
 


     bravais-lattice index     =            0
     lattice parameter (alat)  =      13.3514  a.u.
     unit-cell volume          =    2380.0325 (a.u.)^3
     number of atoms/cell      =           25
     number of atomic types    =            4
     number of electrons       =        72.00
     number of Kohn-Sham states=          100
     kinetic-energy cutoff     =      30.0000  Ry
     charge density cutoff     =     300.0000  Ry
     convergence threshold     =      1.0E-04
     mixing beta               =       0.3000
     number of iterations used =            8  plain     mixing
     Exchange-correlation      = PBE ( 1  4  3  4 0 0)

     celldm(1)=  13.351425  celldm(2)=   0.000000  celldm(3)=   0.000000
     celldm(4)=   0.000000  celldm(5)=   0.000000  celldm(6)=   0.000000

     crystal axes: (cart. coord. in units of alat)
               a(1) = (   1.000000   0.000000   0.000000 )  
               a(2) = (   0.000000   1.000000   0.000000 )  
               a(3) = (   0.000000   0.000000   1.000000 )  

     reciprocal axes: (cart. coord. in units 2 pi/alat)
               b(1) = (  1.000000  0.000000  0.000000 )  
               b(2) = (  0.000000  1.000000  0.000000 )  
               b(3) = (  0.000000  0.000000  1.000000 )  


     PseudoPot. # 1 for C  read from file:
     /util/academic/espresso/6.2.1/pseudopotentials/upf_files/C.pbe-n-rrkjus_psl.0.1.UPF
     MD5 check sum: ab446d787031eba755f1d5ee46644bb0
     Pseudo is Ultrasoft + core correction, Zval =  4.0
     Generated using "atomic" code by A. Dal Corso v.5.0.2 svn rev. 9415
     Using radial grid of 1073 points,  4 beta functions with: 
                l(1) =   0
                l(2) =   0
                l(3) =   1
                l(4) =   1
     Q(r) pseudized with 0 coefficients 


     PseudoPot. # 2 for H  read from file:
     /util/academic/espresso/6.2.1/pseudopotentials/upf_files/H.pbe-rrkjus_psl.0.1.UPF
     MD5 check sum: bd57da0722753ddfd9833a65b40bb853
     Pseudo is Ultrasoft, Zval =  1.0
     Generated using "atomic" code by A. Dal Corso v.5.0.2 svn rev. 9415
     Using radial grid of  929 points,  2 beta functions with: 
                l(1) =   0
                l(2) =   0
     Q(r) pseudized with 0 coefficients 


     PseudoPot. # 3 for Ir read from file:
     /util/academic/espresso/6.2.1/pseudopotentials/upf_files/Ir.pbe-n-rrkjus_psl.0.2.3.UPF
     MD5 check sum: 0d5bc36db6a0bde07ee800c0d8fcbb77
     Pseudo is Ultrasoft + core correction, Zval =  9.0
     Generated using "atomic" code by A. Dal Corso v.5.0.2 svn rev. 9415
     Using radial grid of 1277 points,  6 beta functions with: 
                l(1) =   0
                l(2) =   0
                l(3) =   1
                l(4) =   1
                l(5) =   2
                l(6) =   2
     Q(r) pseudized with 0 coefficients 


     PseudoPot. # 4 for N  read from file:
     /util/academic/espresso/6.2.1/pseudopotentials/upf_files/N.pbe-n-rrkjus_psl.0.1.UPF
     MD5 check sum: ed8b6a90f28a53b7d71920e7015d2dd6
     Pseudo is Ultrasoft + core correction, Zval =  5.0
     Generated using "atomic" code by A. Dal Corso v.5.0.2 svn rev. 9415
     Using radial grid of 1085 points,  4 beta functions with: 
                l(1) =   0
                l(2) =   0
                l(3) =   1
                l(4) =   1
     Q(r) pseudized with 0 coefficients 


     atomic species   valence    mass     pseudopotential
        C              4.00    12.01000     C ( 1.00)
        H              1.00     1.00700     H ( 1.00)
        Ir             9.00   192.21700     Ir( 1.00)
        N              5.00    14.00600     N ( 1.00)

     No symmetry found



   Cartesian axes

     site n.     atom                  positions (alat units)
         1           Ir  tau(   1) = (  -0.0001290   0.0001670  -0.0010221  )
         2           N   tau(   2) = (   0.1357455  -0.2166365  -0.1600265  )
         3           N   tau(   3) = (  -0.2548203  -0.0098780  -0.1584789  )
         4           N   tau(   4) = (   0.1218495   0.2245262  -0.1604620  )
         5           C   tau(   5) = (  -0.0682283   0.2249582   0.1520388  )
         6           C   tau(   6) = (   0.2285373  -0.0547647   0.1519801  )
         7           C   tau(   7) = (   0.2911301  -0.2760067  -0.0835757  )
         8           C   tau(   8) = (   0.3475973  -0.1902121   0.0868590  )
         9           C   tau(   9) = (  -0.1617295  -0.1724922   0.1527310  )
        10           C   tau(  10) = (   0.0938622   0.3901966  -0.0870782  )
        11           C   tau(  11) = (  -0.0058936   0.3996729   0.0862974  )
        12           C   tau(  12) = (  -0.3852422  -0.1139168  -0.0861301  )
        13           C   tau(  13) = (  -0.3406987  -0.2083137   0.0862432  )
        14           H   tau(  14) = (   0.2625057   0.0170562   0.2829466  )
        15           H   tau(  15) = (   0.4653831  -0.2277333   0.1593225  )
        16           H   tau(  16) = (   0.3812116  -0.3878972  -0.1476529  )
        17           H   tau(  17) = (   0.1463990   0.5204822  -0.1554183  )
        18           H   tau(  18) = (  -0.0356463   0.5341545   0.1589201  )
        19           H   tau(  19) = (  -0.1529930   0.2217395   0.2850557  )
        20           H   tau(  20) = (  -0.4152143  -0.3109376   0.1573772  )
        21           H   tau(  21) = (  -0.1173159  -0.2325999   0.2878220  )
        22           H   tau(  22) = (  -0.5191969  -0.1307422  -0.1590009  )
        23           H   tau(  23) = (   0.0856383  -0.2847043  -0.2774180  )
        24           H   tau(  24) = (   0.1871951   0.2262386  -0.2867687  )
        25           H   tau(  25) = (  -0.2940180   0.0612044  -0.2754215  )

     number of k points=     1  gaussian smearing, width (Ry)=  0.0100
                       cart. coord. in units 2pi/alat
        k(    1) = (   0.0000000   0.0000000   0.0000000), wk =   2.0000000

     Dense  grid:   104401 G-vectors     FFT dimensions: (  75,  75,  75)

     Smooth grid:    26318 G-vectors     FFT dimensions: (  48,  48,  48)

     Estimated max dynamical RAM per process >      46.16 MB

     Estimated total dynamical RAM >     553.92 MB

     Check: negative/imaginary core charge=   -0.000002    0.000000

     Initial potential from superposition of free atoms

     starting charge   71.99934, renormalised to   72.00000
     Starting wfc are   69 randomized atomic wfcs +   31 random wfc

     total cpu time spent up to now is        2.0 secs

     Self-consistent Calculation

     iteration #  1     ecut=    30.00 Ry     beta= 0.30
     Davidson diagonalization with overlap
     ethr =  1.00E-02,  avg # of iterations =  5.0

     total cpu time spent up to now is        2.4 secs

     total energy              =    -243.44471798 Ry
     Harris-Foulkes estimate   =    -244.79556421 Ry
     estimated scf accuracy    <       3.53241183 Ry

     iteration #  2     ecut=    30.00 Ry     beta= 0.30
     Davidson diagonalization with overlap
     ethr =  4.91E-03,  avg # of iterations =  1.0

     total cpu time spent up to now is        2.6 secs

     total energy              =    -243.54867189 Ry
     Harris-Foulkes estimate   =    -243.88967616 Ry
     estimated scf accuracy    <       0.97632851 Ry

     iteration #  3     ecut=    30.00 Ry     beta= 0.30
     Davidson diagonalization with overlap
     ethr =  1.36E-03,  avg # of iterations =  4.0

     total cpu time spent up to now is        2.9 secs

     total energy              =    -243.58682352 Ry
     Harris-Foulkes estimate   =    -243.70358305 Ry
     estimated scf accuracy    <       0.36076822 Ry

     iteration #  4     ecut=    30.00 Ry     beta= 0.30
     Davidson diagonalization with overlap
     ethr =  5.01E-04,  avg # of iterations =  2.0

     negative rho (up, down):  2.264E-08 0.000E+00

     total cpu time spent up to now is        4.0 secs

     total energy              =    -243.61316781 Ry
     Harris-Foulkes estimate   =    -243.63058410 Ry
     estimated scf accuracy    <       0.05353780 Ry

     iteration #  5     ecut=    30.00 Ry     beta= 0.30
     Davidson diagonalization with overlap
     ethr =  7.44E-05,  avg # of iterations =  6.0

     total cpu time spent up to now is        4.4 secs

     total energy              =    -243.62250241 Ry
     Harris-Foulkes estimate   =    -243.62349115 Ry
     estimated scf accuracy    <       0.00575737 Ry

     iteration #  6     ecut=    30.00 Ry     beta= 0.30
     Davidson diagonalization with overlap
     ethr =  8.00E-06,  avg # of iterations =  2.0

     total cpu time spent up to now is        4.6 secs

     total energy              =    -243.62290025 Ry
     Harris-Foulkes estimate   =    -243.62298172 Ry
     estimated scf accuracy    <       0.00096710 Ry

     iteration #  7     ecut=    30.00 Ry     beta= 0.30
     Davidson diagonalization with overlap
     ethr =  1.34E-06,  avg # of iterations =  3.0

     total cpu time spent up to now is        4.8 secs

     End of self-consistent calculation

          k = 0.0000 0.0000 0.0000 (  3310 PWs)   bands (ev):

   -18.8815 -18.4194 -18.1188 -15.4783 -13.8825 -13.7631 -11.8484 -10.8616
   -10.8324 -10.4595  -8.9728  -8.5296  -8.2981  -7.7749  -7.5113  -7.0869
    -5.9031  -5.8159  -5.6689  -5.1821  -4.8714  -4.6817  -4.3406  -4.2383
    -4.1250  -3.7445  -3.0435  -2.4712  -2.0593  -1.9351  -1.6294  -1.4142
    -1.0995  -0.3375  -0.1070   0.3540   1.9678   2.6310   3.0144   3.2871
     5.1191   5.1822   5.2557   5.5018   5.7647   5.9053   5.9536   6.0592
     6.6267   6.7238   6.9844   7.3818   7.8907   8.0900   8.4259   8.5578
     8.7405   9.0273   9.3072   9.3426   9.5812   9.8714  10.0087  10.5156
    10.7952  11.0323  11.2241  11.2921  11.5696  11.7366  12.0322  12.1995
    12.5411  12.6764  12.8024  12.8720  13.1378  13.3510  13.5652  13.8434
    14.0956  14.2567  14.3310  14.5529  14.8247  14.8268  15.0167  15.1138
    15.2978  15.3641  15.5125  15.7375  15.9400  16.2170  16.5014  16.6344
    16.6910  16.7987  17.0248  17.1650

     the Fermi energy is     1.1428 ev

!    total energy              =    -243.62305002 Ry
     Harris-Foulkes estimate   =    -243.62298789 Ry
     estimated scf accuracy    <       0.00009985 Ry

     The total energy is the sum of the following terms:

     one-electron contribution =    -356.09668692 Ry
     hartree contribution      =     202.21767695 Ry
     xc contribution           =     -93.76971980 Ry
     ewald contribution        =       4.02567975 Ry
     smearing contrib. (-TS)   =      -0.00000000 Ry

     convergence has been achieved in   7 iterations

     Writing output data file x0.save
 
     init_run     :      0.34s CPU      0.39s WALL (       1 calls)
     electrons    :      1.86s CPU      2.83s WALL (       1 calls)

     Called by init_run:
     wfcinit      :      0.03s CPU      0.04s WALL (       1 calls)
     potinit      :      0.07s CPU      0.08s WALL (       1 calls)

     Called by electrons:
     c_bands      :      0.95s CPU      1.86s WALL (       7 calls)
     sum_band     :      0.41s CPU      0.42s WALL (       7 calls)
     v_of_rho     :      0.22s CPU      0.22s WALL (       8 calls)
     newd         :      0.26s CPU      0.28s WALL (       8 calls)
     mix_rho      :      0.03s CPU      0.03s WALL (       7 calls)

     Called by c_bands:
     init_us_2    :      0.00s CPU      0.00s WALL (      15 calls)
     regterg      :      0.94s CPU      1.85s WALL (       7 calls)

     Called by sum_band:
     sum_band:bec :      0.00s CPU      0.00s WALL (       7 calls)
     addusdens    :      0.27s CPU      0.28s WALL (       7 calls)

     Called by *egterg:
     h_psi        :      0.47s CPU      1.26s WALL (      31 calls)
     s_psi        :      0.01s CPU      0.01s WALL (      31 calls)
     g_psi        :      0.00s CPU      0.00s WALL (      23 calls)
     rdiaghg      :      0.39s CPU      0.50s WALL (      30 calls)

     Called by h_psi:
     h_psi:pot    :      0.47s CPU      1.26s WALL (      31 calls)
     h_psi:calbec :      0.02s CPU      0.56s WALL (      31 calls)
     vloc_psi     :      0.44s CPU      0.46s WALL (      31 calls)
     add_vuspsi   :      0.01s CPU      0.24s WALL (      31 calls)

     General routines
     calbec       :      0.02s CPU      0.57s WALL (      38 calls)
     fft          :      0.28s CPU      0.29s WALL (     124 calls)
     ffts         :      0.01s CPU      0.01s WALL (      15 calls)
     fftw         :      0.48s CPU      0.49s WALL (    2188 calls)
     interpolate  :      0.03s CPU      0.04s WALL (      15 calls)
 
     Parallel routines
     fft_scatt_xy :      0.04s CPU      0.04s WALL (    2327 calls)
     fft_scatt_yz :      0.24s CPU      0.25s WALL (    2327 calls)
 
     PWSCF        :     3.81s CPU         5.30s WALL

 
   This run was terminated on:  18:52:23  22Jun2021            

=------------------------------------------------------------------------------=
   JOB DONE.
=------------------------------------------------------------------------------=
