
     Program PWSCF v.6.2 (svn rev. 14038) starts on 22Jun2021 at 18:58:46 

     This program is part of the open-source Quantum ESPRESSO suite
     for quantum simulation of materials; please cite
         "P. Giannozzi et al., J. Phys.:Condens. Matter 21 395502 (2009);
         "P. Giannozzi et al., J. Phys.:Condens. Matter 29 465901 (2017);
          URL http://www.quantum-espresso.org", 
     in publications or presentations arising from this work. More details at
     http://www.quantum-espresso.org/quote

     Parallel version (MPI), running on    12 processors

     MPI processes distributed on     1 nodes
     R & G space division:  proc/nbgrp/npool/nimage =      12
     Waiting for input...
     Reading input from standard input

     Current dimensions of program PWSCF are:
     Max number of different atomic species (ntypx) = 10
     Max number of k-points (npk) =  40000
     Max angular momentum in pseudopotentials (lmaxx) =  3
               file Ir.pbe-n-rrkjus_psl.0.2.3.UPF: wavefunction(s)  5D renormalized

     gamma-point specific algorithms are used

     Subspace diagonalization in iterative solution of the eigenvalue problem:
     a serial algorithm will be used

 
     Parallelization info
     --------------------
     sticks:   dense  smooth     PW     G-vecs:    dense   smooth      PW
     Min         353     140     34                17398     4383     546
     Max         356     144     36                17404     4390     556
     Sum        4257    1701    421               208801    52635    6619
 


     bravais-lattice index     =            0
     lattice parameter (alat)  =      13.3514  a.u.
     unit-cell volume          =    2380.0325 (a.u.)^3
     number of atoms/cell      =           25
     number of atomic types    =            4
     number of electrons       =        72.00
     number of Kohn-Sham states=          100
     kinetic-energy cutoff     =      30.0000  Ry
     charge density cutoff     =     300.0000  Ry
     convergence threshold     =      1.0E-04
     mixing beta               =       0.3000
     number of iterations used =            8  plain     mixing
     Exchange-correlation      = PBE ( 1  4  3  4 0 0)

     celldm(1)=  13.351425  celldm(2)=   0.000000  celldm(3)=   0.000000
     celldm(4)=   0.000000  celldm(5)=   0.000000  celldm(6)=   0.000000

     crystal axes: (cart. coord. in units of alat)
               a(1) = (   1.000000   0.000000   0.000000 )  
               a(2) = (   0.000000   1.000000   0.000000 )  
               a(3) = (   0.000000   0.000000   1.000000 )  

     reciprocal axes: (cart. coord. in units 2 pi/alat)
               b(1) = (  1.000000  0.000000  0.000000 )  
               b(2) = (  0.000000  1.000000  0.000000 )  
               b(3) = (  0.000000  0.000000  1.000000 )  


     PseudoPot. # 1 for C  read from file:
     /util/academic/espresso/6.2.1/pseudopotentials/upf_files/C.pbe-n-rrkjus_psl.0.1.UPF
     MD5 check sum: ab446d787031eba755f1d5ee46644bb0
     Pseudo is Ultrasoft + core correction, Zval =  4.0
     Generated using "atomic" code by A. Dal Corso v.5.0.2 svn rev. 9415
     Using radial grid of 1073 points,  4 beta functions with: 
                l(1) =   0
                l(2) =   0
                l(3) =   1
                l(4) =   1
     Q(r) pseudized with 0 coefficients 


     PseudoPot. # 2 for H  read from file:
     /util/academic/espresso/6.2.1/pseudopotentials/upf_files/H.pbe-rrkjus_psl.0.1.UPF
     MD5 check sum: bd57da0722753ddfd9833a65b40bb853
     Pseudo is Ultrasoft, Zval =  1.0
     Generated using "atomic" code by A. Dal Corso v.5.0.2 svn rev. 9415
     Using radial grid of  929 points,  2 beta functions with: 
                l(1) =   0
                l(2) =   0
     Q(r) pseudized with 0 coefficients 


     PseudoPot. # 3 for Ir read from file:
     /util/academic/espresso/6.2.1/pseudopotentials/upf_files/Ir.pbe-n-rrkjus_psl.0.2.3.UPF
     MD5 check sum: 0d5bc36db6a0bde07ee800c0d8fcbb77
     Pseudo is Ultrasoft + core correction, Zval =  9.0
     Generated using "atomic" code by A. Dal Corso v.5.0.2 svn rev. 9415
     Using radial grid of 1277 points,  6 beta functions with: 
                l(1) =   0
                l(2) =   0
                l(3) =   1
                l(4) =   1
                l(5) =   2
                l(6) =   2
     Q(r) pseudized with 0 coefficients 


     PseudoPot. # 4 for N  read from file:
     /util/academic/espresso/6.2.1/pseudopotentials/upf_files/N.pbe-n-rrkjus_psl.0.1.UPF
     MD5 check sum: ed8b6a90f28a53b7d71920e7015d2dd6
     Pseudo is Ultrasoft + core correction, Zval =  5.0
     Generated using "atomic" code by A. Dal Corso v.5.0.2 svn rev. 9415
     Using radial grid of 1085 points,  4 beta functions with: 
                l(1) =   0
                l(2) =   0
                l(3) =   1
                l(4) =   1
     Q(r) pseudized with 0 coefficients 


     atomic species   valence    mass     pseudopotential
        C              4.00    12.01000     C ( 1.00)
        H              1.00     1.00700     H ( 1.00)
        Ir             9.00   192.21700     Ir( 1.00)
        N              5.00    14.00600     N ( 1.00)

     No symmetry found



   Cartesian axes

     site n.     atom                  positions (alat units)
         1           Ir  tau(   1) = (   0.0003424   0.0066086   0.0043949  )
         2           N   tau(   2) = (   0.1691926  -0.1910513  -0.1613714  )
         3           N   tau(   3) = (  -0.2390813   0.0033742  -0.1870198  )
         4           N   tau(   4) = (   0.1038908   0.2143344  -0.1702749  )
         5           C   tau(   5) = (  -0.0856679   0.2257779   0.1541752  )
         6           C   tau(   6) = (   0.2095867  -0.0510817   0.1919955  )
         7           C   tau(   7) = (   0.2802490  -0.2834298  -0.0479583  )
         8           C   tau(   8) = (   0.3172059  -0.2141352   0.1440477  )
         9           C   tau(   9) = (  -0.1586690  -0.1962867   0.1260318  )
        10           C   tau(  10) = (   0.0662472   0.3836412  -0.1021643  )
        11           C   tau(  11) = (  -0.0155349   0.3890363   0.0841598  )
        12           C   tau(  12) = (  -0.3477546  -0.1366919  -0.1437470  )
        13           C   tau(  13) = (  -0.3162471  -0.2419958   0.0241174  )
        14           H   tau(  14) = (   0.2492518   0.0466091   0.2999847  )
        15           H   tau(  15) = (   0.4117938  -0.2738265   0.2444275  )
        16           H   tau(  16) = (   0.3834752  -0.3944831  -0.1023492  )
        17           H   tau(  17) = (   0.1108930   0.5002836  -0.1971159  )
        18           H   tau(  18) = (  -0.0177613   0.5221355   0.1593186  )
        19           H   tau(  19) = (  -0.1630018   0.2145465   0.2910049  )
        20           H   tau(  20) = (  -0.3911684  -0.3733513   0.0682956  )
        21           H   tau(  21) = (  -0.1311670  -0.2726040   0.2731359  )
        22           H   tau(  22) = (  -0.4754343  -0.1681601  -0.2258164  )
        23           H   tau(  23) = (   0.1960881  -0.2305509  -0.3036079  )
        24           H   tau(  24) = (   0.1453669   0.2248877  -0.3038162  )
        25           H   tau(  25) = (  -0.2533448   0.0650906  -0.3131635  )

     number of k points=     1  gaussian smearing, width (Ry)=  0.0100
                       cart. coord. in units 2pi/alat
        k(    1) = (   0.0000000   0.0000000   0.0000000), wk =   2.0000000

     Dense  grid:   104401 G-vectors     FFT dimensions: (  75,  75,  75)

     Smooth grid:    26318 G-vectors     FFT dimensions: (  48,  48,  48)

     Estimated max dynamical RAM per process >      46.16 MB

     Estimated total dynamical RAM >     553.92 MB

     Check: negative/imaginary core charge=   -0.000002    0.000000

     Initial potential from superposition of free atoms

     starting charge   71.99934, renormalised to   72.00000
     Starting wfc are   69 randomized atomic wfcs +   31 random wfc

     total cpu time spent up to now is        2.6 secs

     Self-consistent Calculation

     iteration #  1     ecut=    30.00 Ry     beta= 0.30
     Davidson diagonalization with overlap
     ethr =  1.00E-02,  avg # of iterations =  5.0

     total cpu time spent up to now is        3.0 secs

     total energy              =    -243.64840957 Ry
     Harris-Foulkes estimate   =    -244.91713671 Ry
     estimated scf accuracy    <       3.32327262 Ry

     iteration #  2     ecut=    30.00 Ry     beta= 0.30
     Davidson diagonalization with overlap
     ethr =  4.62E-03,  avg # of iterations =  1.0

     total cpu time spent up to now is        3.2 secs

     total energy              =    -243.76063356 Ry
     Harris-Foulkes estimate   =    -244.07283461 Ry
     estimated scf accuracy    <       0.89927033 Ry

     iteration #  3     ecut=    30.00 Ry     beta= 0.30
     Davidson diagonalization with overlap
     ethr =  1.25E-03,  avg # of iterations =  3.0

     total cpu time spent up to now is        3.4 secs

     total energy              =    -243.79715921 Ry
     Harris-Foulkes estimate   =    -243.90713652 Ry
     estimated scf accuracy    <       0.35239540 Ry

     iteration #  4     ecut=    30.00 Ry     beta= 0.30
     Davidson diagonalization with overlap
     ethr =  4.89E-04,  avg # of iterations =  6.0

     negative rho (up, down):  2.886E-08 0.000E+00

     total cpu time spent up to now is        3.7 secs

     total energy              =    -243.82309694 Ry
     Harris-Foulkes estimate   =    -243.84119397 Ry
     estimated scf accuracy    <       0.05506724 Ry

     iteration #  5     ecut=    30.00 Ry     beta= 0.30
     Davidson diagonalization with overlap
     ethr =  7.65E-05,  avg # of iterations = 10.0

     negative rho (up, down):  1.364E-07 0.000E+00

     total cpu time spent up to now is        4.1 secs

     total energy              =    -243.83027209 Ry
     Harris-Foulkes estimate   =    -243.83138690 Ry
     estimated scf accuracy    <       0.00566295 Ry

     iteration #  6     ecut=    30.00 Ry     beta= 0.30
     Davidson diagonalization with overlap
     ethr =  7.87E-06,  avg # of iterations =  5.0

     negative rho (up, down):  3.088E-08 0.000E+00

     total cpu time spent up to now is        4.4 secs

     total energy              =    -243.83086698 Ry
     Harris-Foulkes estimate   =    -243.83098363 Ry
     estimated scf accuracy    <       0.00084205 Ry

     iteration #  7     ecut=    30.00 Ry     beta= 0.30
     Davidson diagonalization with overlap
     ethr =  1.17E-06,  avg # of iterations =  4.0

     total cpu time spent up to now is        4.6 secs

     total energy              =    -243.83095621 Ry
     Harris-Foulkes estimate   =    -243.83094028 Ry
     estimated scf accuracy    <       0.00012273 Ry

     iteration #  8     ecut=    30.00 Ry     beta= 0.30
     Davidson diagonalization with overlap
     ethr =  1.70E-07,  avg # of iterations =  2.0

     total cpu time spent up to now is        4.9 secs

     End of self-consistent calculation

          k = 0.0000 0.0000 0.0000 (  3310 PWs)   bands (ev):

   -18.4475 -18.1832 -18.1450 -14.2559 -14.0460 -13.6547 -11.2626 -10.7924
   -10.4502  -9.0068  -8.5945  -8.3068  -8.2288  -7.8737  -7.6272  -6.3965
    -5.8583  -5.8502  -5.6297  -5.1205  -5.0940  -4.7891  -4.2254  -4.0877
    -3.9160  -3.6423  -3.5673  -2.3445  -2.2841  -2.0805  -1.7384  -1.3228
    -1.2428  -0.3782  -0.3580   0.2893   2.1383   2.5522   3.0048   3.1536
     4.6165   4.8659   5.1503   5.4151   5.5159   5.8231   5.9372   6.1122
     6.3981   6.6019   6.9805   7.4248   7.7034   7.8111   8.1260   8.3487
     8.4964   8.7287   9.2168   9.3196   9.6698   9.8759  10.1350  10.5823
    10.7509  10.9752  11.0710  11.2909  11.6625  11.7422  12.0396  12.1724
    12.3746  12.4310  12.6390  12.9058  13.0624  13.1424  13.2844  13.5656
    13.8145  14.1039  14.1630  14.3817  14.5172  14.6181  14.6854  14.9017
    15.0056  15.2552  15.4420  15.6599  15.9592  16.0697  16.2125  16.4446
    16.5808  16.8243  16.9362  17.0519

     the Fermi energy is     0.9917 ev

!    total energy              =    -243.83101561 Ry
     Harris-Foulkes estimate   =    -243.83097660 Ry
     estimated scf accuracy    <       0.00001992 Ry

     The total energy is the sum of the following terms:

     one-electron contribution =    -328.67556848 Ry
     hartree contribution      =     188.49483074 Ry
     xc contribution           =     -93.17846258 Ry
     ewald contribution        =     -10.47181530 Ry
     smearing contrib. (-TS)   =      -0.00000000 Ry

     convergence has been achieved in   8 iterations

     Writing output data file x0.save
 
     init_run     :      0.39s CPU      0.43s WALL (       1 calls)
     electrons    :      2.25s CPU      2.34s WALL (       1 calls)

     Called by init_run:
     wfcinit      :      0.03s CPU      0.04s WALL (       1 calls)
     potinit      :      0.08s CPU      0.08s WALL (       1 calls)

     Called by electrons:
     c_bands      :      1.19s CPU      1.22s WALL (       8 calls)
     sum_band     :      0.49s CPU      0.50s WALL (       8 calls)
     v_of_rho     :      0.25s CPU      0.26s WALL (       9 calls)
     newd         :      0.32s CPU      0.33s WALL (       9 calls)
     mix_rho      :      0.03s CPU      0.03s WALL (       8 calls)

     Called by c_bands:
     init_us_2    :      0.00s CPU      0.01s WALL (      17 calls)
     regterg      :      1.18s CPU      1.20s WALL (       8 calls)

     Called by sum_band:
     sum_band:bec :      0.00s CPU      0.00s WALL (       8 calls)
     addusdens    :      0.34s CPU      0.35s WALL (       8 calls)

     Called by *egterg:
     h_psi        :      0.49s CPU      0.50s WALL (      45 calls)
     s_psi        :      0.01s CPU      0.01s WALL (      45 calls)
     g_psi        :      0.00s CPU      0.00s WALL (      36 calls)
     rdiaghg      :      0.56s CPU      0.56s WALL (      44 calls)

     Called by h_psi:
     h_psi:pot    :      0.49s CPU      0.50s WALL (      45 calls)
     h_psi:calbec :      0.02s CPU      0.02s WALL (      45 calls)
     vloc_psi     :      0.45s CPU      0.46s WALL (      45 calls)
     add_vuspsi   :      0.01s CPU      0.01s WALL (      45 calls)

     General routines
     calbec       :      0.03s CPU      0.03s WALL (      53 calls)
     fft          :      0.26s CPU      0.26s WALL (     140 calls)
     ffts         :      0.01s CPU      0.01s WALL (      17 calls)
     fftw         :      0.48s CPU      0.49s WALL (    2476 calls)
     interpolate  :      0.04s CPU      0.04s WALL (      17 calls)
 
     Parallel routines
     fft_scatt_xy :      0.04s CPU      0.04s WALL (    2633 calls)
     fft_scatt_yz :      0.14s CPU      0.14s WALL (    2633 calls)
 
     PWSCF        :     4.35s CPU         5.41s WALL

 
   This run was terminated on:  18:58:52  22Jun2021            

=------------------------------------------------------------------------------=
   JOB DONE.
=------------------------------------------------------------------------------=
