
     Program PWSCF v.6.2 (svn rev. 14038) starts on 22Jun2021 at 18:57:22 

     This program is part of the open-source Quantum ESPRESSO suite
     for quantum simulation of materials; please cite
         "P. Giannozzi et al., J. Phys.:Condens. Matter 21 395502 (2009);
         "P. Giannozzi et al., J. Phys.:Condens. Matter 29 465901 (2017);
          URL http://www.quantum-espresso.org", 
     in publications or presentations arising from this work. More details at
     http://www.quantum-espresso.org/quote

     Parallel version (MPI), running on    12 processors

     MPI processes distributed on     1 nodes
     R & G space division:  proc/nbgrp/npool/nimage =      12
     Waiting for input...
     Reading input from standard input

     Current dimensions of program PWSCF are:
     Max number of different atomic species (ntypx) = 10
     Max number of k-points (npk) =  40000
     Max angular momentum in pseudopotentials (lmaxx) =  3
               file Ir.pbe-n-rrkjus_psl.0.2.3.UPF: wavefunction(s)  5D renormalized

     gamma-point specific algorithms are used

     Subspace diagonalization in iterative solution of the eigenvalue problem:
     a serial algorithm will be used

 
     Parallelization info
     --------------------
     sticks:   dense  smooth     PW     G-vecs:    dense   smooth      PW
     Min         353     140     34                17398     4383     546
     Max         356     144     36                17404     4390     556
     Sum        4257    1701    421               208801    52635    6619
 


     bravais-lattice index     =            0
     lattice parameter (alat)  =      13.3514  a.u.
     unit-cell volume          =    2380.0325 (a.u.)^3
     number of atoms/cell      =           25
     number of atomic types    =            4
     number of electrons       =        72.00
     number of Kohn-Sham states=          100
     kinetic-energy cutoff     =      30.0000  Ry
     charge density cutoff     =     300.0000  Ry
     convergence threshold     =      1.0E-04
     mixing beta               =       0.3000
     number of iterations used =            8  plain     mixing
     Exchange-correlation      = PBE ( 1  4  3  4 0 0)

     celldm(1)=  13.351425  celldm(2)=   0.000000  celldm(3)=   0.000000
     celldm(4)=   0.000000  celldm(5)=   0.000000  celldm(6)=   0.000000

     crystal axes: (cart. coord. in units of alat)
               a(1) = (   1.000000   0.000000   0.000000 )  
               a(2) = (   0.000000   1.000000   0.000000 )  
               a(3) = (   0.000000   0.000000   1.000000 )  

     reciprocal axes: (cart. coord. in units 2 pi/alat)
               b(1) = (  1.000000  0.000000  0.000000 )  
               b(2) = (  0.000000  1.000000  0.000000 )  
               b(3) = (  0.000000  0.000000  1.000000 )  


     PseudoPot. # 1 for C  read from file:
     /util/academic/espresso/6.2.1/pseudopotentials/upf_files/C.pbe-n-rrkjus_psl.0.1.UPF
     MD5 check sum: ab446d787031eba755f1d5ee46644bb0
     Pseudo is Ultrasoft + core correction, Zval =  4.0
     Generated using "atomic" code by A. Dal Corso v.5.0.2 svn rev. 9415
     Using radial grid of 1073 points,  4 beta functions with: 
                l(1) =   0
                l(2) =   0
                l(3) =   1
                l(4) =   1
     Q(r) pseudized with 0 coefficients 


     PseudoPot. # 2 for H  read from file:
     /util/academic/espresso/6.2.1/pseudopotentials/upf_files/H.pbe-rrkjus_psl.0.1.UPF
     MD5 check sum: bd57da0722753ddfd9833a65b40bb853
     Pseudo is Ultrasoft, Zval =  1.0
     Generated using "atomic" code by A. Dal Corso v.5.0.2 svn rev. 9415
     Using radial grid of  929 points,  2 beta functions with: 
                l(1) =   0
                l(2) =   0
     Q(r) pseudized with 0 coefficients 


     PseudoPot. # 3 for Ir read from file:
     /util/academic/espresso/6.2.1/pseudopotentials/upf_files/Ir.pbe-n-rrkjus_psl.0.2.3.UPF
     MD5 check sum: 0d5bc36db6a0bde07ee800c0d8fcbb77
     Pseudo is Ultrasoft + core correction, Zval =  9.0
     Generated using "atomic" code by A. Dal Corso v.5.0.2 svn rev. 9415
     Using radial grid of 1277 points,  6 beta functions with: 
                l(1) =   0
                l(2) =   0
                l(3) =   1
                l(4) =   1
                l(5) =   2
                l(6) =   2
     Q(r) pseudized with 0 coefficients 


     PseudoPot. # 4 for N  read from file:
     /util/academic/espresso/6.2.1/pseudopotentials/upf_files/N.pbe-n-rrkjus_psl.0.1.UPF
     MD5 check sum: ed8b6a90f28a53b7d71920e7015d2dd6
     Pseudo is Ultrasoft + core correction, Zval =  5.0
     Generated using "atomic" code by A. Dal Corso v.5.0.2 svn rev. 9415
     Using radial grid of 1085 points,  4 beta functions with: 
                l(1) =   0
                l(2) =   0
                l(3) =   1
                l(4) =   1
     Q(r) pseudized with 0 coefficients 


     atomic species   valence    mass     pseudopotential
        C              4.00    12.01000     C ( 1.00)
        H              1.00     1.00700     H ( 1.00)
        Ir             9.00   192.21700     Ir( 1.00)
        N              5.00    14.00600     N ( 1.00)

     No symmetry found



   Cartesian axes

     site n.     atom                  positions (alat units)
         1           Ir  tau(   1) = (   0.0007053   0.0035952   0.0010980  )
         2           N   tau(   2) = (   0.1561378  -0.1919927  -0.1626135  )
         3           N   tau(   3) = (  -0.2390441   0.0031849  -0.1661044  )
         4           N   tau(   4) = (   0.1124924   0.2102632  -0.1638642  )
         5           C   tau(   5) = (  -0.0804681   0.2312181   0.1513087  )
         6           C   tau(   6) = (   0.2071201  -0.0518654   0.1819596  )
         7           C   tau(   7) = (   0.2845432  -0.2721957  -0.0600526  )
         8           C   tau(   8) = (   0.3064265  -0.2106967   0.1310349  )
         9           C   tau(   9) = (  -0.1547350  -0.1766701   0.1342760  )
        10           C   tau(  10) = (   0.0706016   0.3796009  -0.0951671  )
        11           C   tau(  11) = (  -0.0108984   0.3930784   0.0840517  )
        12           C   tau(  12) = (  -0.3546664  -0.1290880  -0.1208398  )
        13           C   tau(  13) = (  -0.3080665  -0.2373242   0.0392833  )
        14           H   tau(  14) = (   0.2522571   0.0209939   0.3051546  )
        15           H   tau(  15) = (   0.4144248  -0.2783965   0.2298429  )
        16           H   tau(  16) = (   0.3660863  -0.3937237  -0.1097907  )
        17           H   tau(  17) = (   0.0805220   0.4919329  -0.1964849  )
        18           H   tau(  18) = (  -0.0337043   0.5341460   0.1575546  )
        19           H   tau(  19) = (  -0.1465132   0.2285992   0.2997778  )
        20           H   tau(  20) = (  -0.4047535  -0.3486256   0.1068780  )
        21           H   tau(  21) = (  -0.1284015  -0.2158329   0.2790565  )
        22           H   tau(  22) = (  -0.4639423  -0.1778064  -0.2127744  )
        23           H   tau(  23) = (   0.1159013  -0.2593606  -0.2897449  )
        24           H   tau(  24) = (   0.1421817   0.2276086  -0.3040239  )
        25           H   tau(  25) = (  -0.2614330   0.0676622  -0.2898810  )

     number of k points=     1  gaussian smearing, width (Ry)=  0.0100
                       cart. coord. in units 2pi/alat
        k(    1) = (   0.0000000   0.0000000   0.0000000), wk =   2.0000000

     Dense  grid:   104401 G-vectors     FFT dimensions: (  75,  75,  75)

     Smooth grid:    26318 G-vectors     FFT dimensions: (  48,  48,  48)

     Estimated max dynamical RAM per process >      46.16 MB

     Estimated total dynamical RAM >     553.92 MB

     Check: negative/imaginary core charge=   -0.000002    0.000000

     Initial potential from superposition of free atoms

     starting charge   71.99934, renormalised to   72.00000
     Starting wfc are   69 randomized atomic wfcs +   31 random wfc

     total cpu time spent up to now is        2.2 secs

     Self-consistent Calculation

     iteration #  1     ecut=    30.00 Ry     beta= 0.30
     Davidson diagonalization with overlap
     ethr =  1.00E-02,  avg # of iterations =  5.0

     total cpu time spent up to now is        2.5 secs

     total energy              =    -243.66178369 Ry
     Harris-Foulkes estimate   =    -244.98229912 Ry
     estimated scf accuracy    <       3.45190913 Ry

     iteration #  2     ecut=    30.00 Ry     beta= 0.30
     Davidson diagonalization with overlap
     ethr =  4.79E-03,  avg # of iterations =  1.0

     total cpu time spent up to now is        2.7 secs

     total energy              =    -243.75889509 Ry
     Harris-Foulkes estimate   =    -244.06354326 Ry
     estimated scf accuracy    <       0.85112969 Ry

     iteration #  3     ecut=    30.00 Ry     beta= 0.30
     Davidson diagonalization with overlap
     ethr =  1.18E-03,  avg # of iterations =  7.0

     total cpu time spent up to now is        3.1 secs

     total energy              =    -243.79751471 Ry
     Harris-Foulkes estimate   =    -243.89958454 Ry
     estimated scf accuracy    <       0.33108625 Ry

     iteration #  4     ecut=    30.00 Ry     beta= 0.30
     Davidson diagonalization with overlap
     ethr =  4.60E-04,  avg # of iterations =  1.0

     negative rho (up, down):  2.056E-07 0.000E+00

     total cpu time spent up to now is        3.3 secs

     total energy              =    -243.81679252 Ry
     Harris-Foulkes estimate   =    -243.83620157 Ry
     estimated scf accuracy    <       0.05589688 Ry

     iteration #  5     ecut=    30.00 Ry     beta= 0.30
     Davidson diagonalization with overlap
     ethr =  7.76E-05,  avg # of iterations =  5.0

     negative rho (up, down):  1.032E-07 0.000E+00

     total cpu time spent up to now is        3.6 secs

     total energy              =    -243.82645248 Ry
     Harris-Foulkes estimate   =    -243.82706465 Ry
     estimated scf accuracy    <       0.00408926 Ry

     iteration #  6     ecut=    30.00 Ry     beta= 0.30
     Davidson diagonalization with overlap
     ethr =  5.68E-06,  avg # of iterations =  2.0

     negative rho (up, down):  4.133E-08 0.000E+00

     total cpu time spent up to now is        3.8 secs

     total energy              =    -243.82670237 Ry
     Harris-Foulkes estimate   =    -243.82681681 Ry
     estimated scf accuracy    <       0.00085129 Ry

     iteration #  7     ecut=    30.00 Ry     beta= 0.30
     Davidson diagonalization with overlap
     ethr =  1.18E-06,  avg # of iterations =  6.0

     total cpu time spent up to now is        4.1 secs

     End of self-consistent calculation

          k = 0.0000 0.0000 0.0000 (  3310 PWs)   bands (ev):

   -18.5637 -18.3230 -18.1993 -14.3597 -14.2072 -13.8804 -11.5540 -10.8222
   -10.6498  -9.1348  -8.5558  -8.4170  -8.1582  -8.0364  -7.7411  -6.6289
    -5.8901  -5.7330  -5.5279  -5.4154  -5.0389  -4.6925  -4.3934  -4.3842
    -4.0305  -3.9214  -3.6696  -2.3742  -2.2315  -2.1549  -1.6645  -1.4368
    -1.2646  -0.4327  -0.2741   0.1972   2.0284   2.6614   3.0948   3.1086
     4.8939   5.1783   5.3520   5.5982   5.6841   5.7406   6.0273   6.2039
     6.5419   6.9450   7.0847   7.5427   7.7213   7.9482   8.0926   8.3435
     8.5192   8.7710   9.0319   9.3323   9.6359   9.9746  10.1584  10.4349
    10.8088  11.0143  11.1798  11.4274  11.7138  11.7561  12.1117  12.3761
    12.5256  12.6025  12.6776  12.9586  13.0294  13.3058  13.4903  13.9392
    14.0418  14.2169  14.3050  14.4878  14.6325  14.7646  14.9241  15.0661
    15.1760  15.3324  15.5222  15.7008  15.9634  16.0588  16.3218  16.4424
    16.5816  16.8676  17.0198  17.0823

     the Fermi energy is     0.9557 ev

!    total energy              =    -243.82685870 Ry
     Harris-Foulkes estimate   =    -243.82678479 Ry
     estimated scf accuracy    <       0.00005108 Ry

     The total energy is the sum of the following terms:

     one-electron contribution =    -347.66865799 Ry
     hartree contribution      =     197.97595688 Ry
     xc contribution           =     -93.53690006 Ry
     ewald contribution        =      -0.59725753 Ry
     smearing contrib. (-TS)   =      -0.00000000 Ry

     convergence has been achieved in   7 iterations

     Writing output data file x0.save
 
     init_run     :      0.36s CPU      0.40s WALL (       1 calls)
     electrons    :      1.85s CPU      1.95s WALL (       1 calls)

     Called by init_run:
     wfcinit      :      0.03s CPU      0.04s WALL (       1 calls)
     potinit      :      0.07s CPU      0.07s WALL (       1 calls)

     Called by electrons:
     c_bands      :      0.96s CPU      0.99s WALL (       7 calls)
     sum_band     :      0.41s CPU      0.42s WALL (       7 calls)
     v_of_rho     :      0.22s CPU      0.23s WALL (       8 calls)
     newd         :      0.27s CPU      0.28s WALL (       8 calls)
     mix_rho      :      0.03s CPU      0.03s WALL (       7 calls)

     Called by c_bands:
     init_us_2    :      0.00s CPU      0.00s WALL (      15 calls)
     regterg      :      0.95s CPU      0.97s WALL (       7 calls)

     Called by sum_band:
     sum_band:bec :      0.00s CPU      0.00s WALL (       7 calls)
     addusdens    :      0.28s CPU      0.29s WALL (       7 calls)

     Called by *egterg:
     h_psi        :      0.44s CPU      0.45s WALL (      35 calls)
     s_psi        :      0.01s CPU      0.01s WALL (      35 calls)
     g_psi        :      0.00s CPU      0.00s WALL (      27 calls)
     rdiaghg      :      0.41s CPU      0.41s WALL (      34 calls)

     Called by h_psi:
     h_psi:pot    :      0.44s CPU      0.45s WALL (      35 calls)
     h_psi:calbec :      0.02s CPU      0.02s WALL (      35 calls)
     vloc_psi     :      0.41s CPU      0.42s WALL (      35 calls)
     add_vuspsi   :      0.01s CPU      0.01s WALL (      35 calls)

     General routines
     calbec       :      0.02s CPU      0.03s WALL (      42 calls)
     fft          :      0.23s CPU      0.23s WALL (     124 calls)
     ffts         :      0.01s CPU      0.01s WALL (      15 calls)
     fftw         :      0.43s CPU      0.45s WALL (    2200 calls)
     interpolate  :      0.04s CPU      0.04s WALL (      15 calls)
 
     Parallel routines
     fft_scatt_xy :      0.04s CPU      0.04s WALL (    2339 calls)
     fft_scatt_yz :      0.15s CPU      0.15s WALL (    2339 calls)
 
     PWSCF        :     3.77s CPU         4.71s WALL

 
   This run was terminated on:  18:57:27  22Jun2021            

=------------------------------------------------------------------------------=
   JOB DONE.
=------------------------------------------------------------------------------=
