
     Program PWSCF v.6.2 (svn rev. 14038) starts on 22Jun2021 at 18:55:19 

     This program is part of the open-source Quantum ESPRESSO suite
     for quantum simulation of materials; please cite
         "P. Giannozzi et al., J. Phys.:Condens. Matter 21 395502 (2009);
         "P. Giannozzi et al., J. Phys.:Condens. Matter 29 465901 (2017);
          URL http://www.quantum-espresso.org", 
     in publications or presentations arising from this work. More details at
     http://www.quantum-espresso.org/quote

     Parallel version (MPI), running on    12 processors

     MPI processes distributed on     1 nodes
     R & G space division:  proc/nbgrp/npool/nimage =      12
     Waiting for input...
     Reading input from standard input

     Current dimensions of program PWSCF are:
     Max number of different atomic species (ntypx) = 10
     Max number of k-points (npk) =  40000
     Max angular momentum in pseudopotentials (lmaxx) =  3
               file Ir.pbe-n-rrkjus_psl.0.2.3.UPF: wavefunction(s)  5D renormalized

     gamma-point specific algorithms are used

     Subspace diagonalization in iterative solution of the eigenvalue problem:
     a serial algorithm will be used

 
     Parallelization info
     --------------------
     sticks:   dense  smooth     PW     G-vecs:    dense   smooth      PW
     Min         353     140     34                17398     4383     546
     Max         356     144     36                17404     4390     556
     Sum        4257    1701    421               208801    52635    6619
 


     bravais-lattice index     =            0
     lattice parameter (alat)  =      13.3514  a.u.
     unit-cell volume          =    2380.0325 (a.u.)^3
     number of atoms/cell      =           25
     number of atomic types    =            4
     number of electrons       =        72.00
     number of Kohn-Sham states=          100
     kinetic-energy cutoff     =      30.0000  Ry
     charge density cutoff     =     300.0000  Ry
     convergence threshold     =      1.0E-04
     mixing beta               =       0.3000
     number of iterations used =            8  plain     mixing
     Exchange-correlation      = PBE ( 1  4  3  4 0 0)

     celldm(1)=  13.351425  celldm(2)=   0.000000  celldm(3)=   0.000000
     celldm(4)=   0.000000  celldm(5)=   0.000000  celldm(6)=   0.000000

     crystal axes: (cart. coord. in units of alat)
               a(1) = (   1.000000   0.000000   0.000000 )  
               a(2) = (   0.000000   1.000000   0.000000 )  
               a(3) = (   0.000000   0.000000   1.000000 )  

     reciprocal axes: (cart. coord. in units 2 pi/alat)
               b(1) = (  1.000000  0.000000  0.000000 )  
               b(2) = (  0.000000  1.000000  0.000000 )  
               b(3) = (  0.000000  0.000000  1.000000 )  


     PseudoPot. # 1 for C  read from file:
     /util/academic/espresso/6.2.1/pseudopotentials/upf_files/C.pbe-n-rrkjus_psl.0.1.UPF
     MD5 check sum: ab446d787031eba755f1d5ee46644bb0
     Pseudo is Ultrasoft + core correction, Zval =  4.0
     Generated using "atomic" code by A. Dal Corso v.5.0.2 svn rev. 9415
     Using radial grid of 1073 points,  4 beta functions with: 
                l(1) =   0
                l(2) =   0
                l(3) =   1
                l(4) =   1
     Q(r) pseudized with 0 coefficients 


     PseudoPot. # 2 for H  read from file:
     /util/academic/espresso/6.2.1/pseudopotentials/upf_files/H.pbe-rrkjus_psl.0.1.UPF
     MD5 check sum: bd57da0722753ddfd9833a65b40bb853
     Pseudo is Ultrasoft, Zval =  1.0
     Generated using "atomic" code by A. Dal Corso v.5.0.2 svn rev. 9415
     Using radial grid of  929 points,  2 beta functions with: 
                l(1) =   0
                l(2) =   0
     Q(r) pseudized with 0 coefficients 


     PseudoPot. # 3 for Ir read from file:
     /util/academic/espresso/6.2.1/pseudopotentials/upf_files/Ir.pbe-n-rrkjus_psl.0.2.3.UPF
     MD5 check sum: 0d5bc36db6a0bde07ee800c0d8fcbb77
     Pseudo is Ultrasoft + core correction, Zval =  9.0
     Generated using "atomic" code by A. Dal Corso v.5.0.2 svn rev. 9415
     Using radial grid of 1277 points,  6 beta functions with: 
                l(1) =   0
                l(2) =   0
                l(3) =   1
                l(4) =   1
                l(5) =   2
                l(6) =   2
     Q(r) pseudized with 0 coefficients 


     PseudoPot. # 4 for N  read from file:
     /util/academic/espresso/6.2.1/pseudopotentials/upf_files/N.pbe-n-rrkjus_psl.0.1.UPF
     MD5 check sum: ed8b6a90f28a53b7d71920e7015d2dd6
     Pseudo is Ultrasoft + core correction, Zval =  5.0
     Generated using "atomic" code by A. Dal Corso v.5.0.2 svn rev. 9415
     Using radial grid of 1085 points,  4 beta functions with: 
                l(1) =   0
                l(2) =   0
                l(3) =   1
                l(4) =   1
     Q(r) pseudized with 0 coefficients 


     atomic species   valence    mass     pseudopotential
        C              4.00    12.01000     C ( 1.00)
        H              1.00     1.00700     H ( 1.00)
        Ir             9.00   192.21700     Ir( 1.00)
        N              5.00    14.00600     N ( 1.00)

     No symmetry found



   Cartesian axes

     site n.     atom                  positions (alat units)
         1           Ir  tau(   1) = (   0.0006088   0.0041478   0.0011906  )
         2           N   tau(   2) = (   0.1351587  -0.2064706  -0.1724042  )
         3           N   tau(   3) = (  -0.2430784   0.0034805  -0.1732102  )
         4           N   tau(   4) = (   0.1205481   0.2164245  -0.1519018  )
         5           C   tau(   5) = (  -0.0752605   0.2241578   0.1517610  )
         6           C   tau(   6) = (   0.2084393  -0.0563086   0.1794666  )
         7           C   tau(   7) = (   0.2722854  -0.2738338  -0.0666064  )
         8           C   tau(   8) = (   0.3119080  -0.1996644   0.1137969  )
         9           C   tau(   9) = (  -0.1482185  -0.1802447   0.1461512  )
        10           C   tau(  10) = (   0.0802649   0.3862587  -0.1018884  )
        11           C   tau(  11) = (  -0.0054004   0.3934742   0.0905033  )
        12           C   tau(  12) = (  -0.3587214  -0.1267921  -0.1136362  )
        13           C   tau(  13) = (  -0.3084487  -0.2435306   0.0495615  )
        14           H   tau(  14) = (   0.2487753   0.0352758   0.3082701  )
        15           H   tau(  15) = (   0.4107852  -0.2668972   0.2097869  )
        16           H   tau(  16) = (   0.3687127  -0.3887244  -0.1131618  )
        17           H   tau(  17) = (   0.1012335   0.5211926  -0.1943031  )
        18           H   tau(  18) = (  -0.0202996   0.5375016   0.1479433  )
        19           H   tau(  19) = (  -0.1460622   0.2305901   0.2871312  )
        20           H   tau(  20) = (  -0.4030199  -0.3410882   0.1226378  )
        21           H   tau(  21) = (  -0.1139865  -0.2448946   0.2823931  )
        22           H   tau(  22) = (  -0.4963646  -0.1319712  -0.1909820  )
        23           H   tau(  23) = (   0.1255487  -0.2754848  -0.2962688  )
        24           H   tau(  24) = (   0.1801365   0.1877064  -0.2810151  )
        25           H   tau(  25) = (  -0.2712152   0.0703887  -0.2947254  )

     number of k points=     1  gaussian smearing, width (Ry)=  0.0100
                       cart. coord. in units 2pi/alat
        k(    1) = (   0.0000000   0.0000000   0.0000000), wk =   2.0000000

     Dense  grid:   104401 G-vectors     FFT dimensions: (  75,  75,  75)

     Smooth grid:    26318 G-vectors     FFT dimensions: (  48,  48,  48)

     Estimated max dynamical RAM per process >      46.16 MB

     Estimated total dynamical RAM >     553.92 MB

     Check: negative/imaginary core charge=   -0.000002    0.000000

     Initial potential from superposition of free atoms

     starting charge   71.99934, renormalised to   72.00000
     Starting wfc are   69 randomized atomic wfcs +   31 random wfc

     total cpu time spent up to now is        2.2 secs

     Self-consistent Calculation

     iteration #  1     ecut=    30.00 Ry     beta= 0.30
     Davidson diagonalization with overlap
     ethr =  1.00E-02,  avg # of iterations =  5.0

     total cpu time spent up to now is        2.6 secs

     total energy              =    -243.65974845 Ry
     Harris-Foulkes estimate   =    -244.89170660 Ry
     estimated scf accuracy    <       3.25353747 Ry

     iteration #  2     ecut=    30.00 Ry     beta= 0.30
     Davidson diagonalization with overlap
     ethr =  4.52E-03,  avg # of iterations =  1.0

     total cpu time spent up to now is        2.8 secs

     total energy              =    -243.73879599 Ry
     Harris-Foulkes estimate   =    -244.01721571 Ry
     estimated scf accuracy    <       0.77382003 Ry

     iteration #  3     ecut=    30.00 Ry     beta= 0.30
     Davidson diagonalization with overlap
     ethr =  1.07E-03,  avg # of iterations =  4.0

     total cpu time spent up to now is        3.1 secs

     total energy              =    -243.76841529 Ry
     Harris-Foulkes estimate   =    -243.86436090 Ry
     estimated scf accuracy    <       0.31567630 Ry

     iteration #  4     ecut=    30.00 Ry     beta= 0.30
     Davidson diagonalization with overlap
     ethr =  4.38E-04,  avg # of iterations =  2.0

     negative rho (up, down):  1.656E-07 0.000E+00

     total cpu time spent up to now is        3.3 secs

     total energy              =    -243.78922314 Ry
     Harris-Foulkes estimate   =    -243.80750120 Ry
     estimated scf accuracy    <       0.05518157 Ry

     iteration #  5     ecut=    30.00 Ry     beta= 0.30
     Davidson diagonalization with overlap
     ethr =  7.66E-05,  avg # of iterations =  6.0

     negative rho (up, down):  1.758E-07 0.000E+00

     total cpu time spent up to now is        3.6 secs

     total energy              =    -243.79795856 Ry
     Harris-Foulkes estimate   =    -243.79879680 Ry
     estimated scf accuracy    <       0.00493144 Ry

     iteration #  6     ecut=    30.00 Ry     beta= 0.30
     Davidson diagonalization with overlap
     ethr =  6.85E-06,  avg # of iterations =  2.0

     negative rho (up, down):  7.677E-08 0.000E+00

     total cpu time spent up to now is        3.9 secs

     total energy              =    -243.79831486 Ry
     Harris-Foulkes estimate   =    -243.79840411 Ry
     estimated scf accuracy    <       0.00086202 Ry

     iteration #  7     ecut=    30.00 Ry     beta= 0.30
     Davidson diagonalization with overlap
     ethr =  1.20E-06,  avg # of iterations =  1.0

     total cpu time spent up to now is        4.1 secs

     End of self-consistent calculation

          k = 0.0000 0.0000 0.0000 (  3310 PWs)   bands (ev):

   -18.6820 -18.2541 -18.0581 -14.5854 -13.8647 -13.7214 -11.5244 -10.7959
   -10.6017  -9.3379  -8.6724  -8.2913  -8.1191  -7.9901  -7.5845  -6.6361
    -6.0381  -5.9136  -5.4436  -5.2814  -5.0672  -4.8103  -4.3942  -4.1960
    -3.9473  -3.6245  -3.3501  -2.6023  -2.2161  -2.0366  -1.5647  -1.4484
    -1.2403  -0.3458  -0.1864   0.1545   1.9385   2.5588   3.1082   3.2634
     4.8995   5.1094   5.4260   5.5977   5.6510   5.6660   5.9842   6.1494
     6.6077   6.7377   7.1431   7.3561   7.7792   7.8862   8.1713   8.3716
     8.6530   8.9457   9.0512   9.1600   9.5228   9.6869   9.9331  10.7599
    10.7958  10.9934  11.1233  11.1797  11.4862  11.7405  11.8502  12.1748
    12.2839  12.5448  12.6557  12.7799  13.0436  13.3348  13.4754  13.8306
    13.9844  14.1093  14.2757  14.4741  14.6570  14.7861  14.8009  15.1078
    15.1569  15.3345  15.3939  15.7713  15.8490  15.9328  16.3552  16.5772
    16.6998  16.9139  16.9489  17.1913

     the Fermi energy is     0.9617 ev

!    total energy              =    -243.79845618 Ry
     Harris-Foulkes estimate   =    -243.79838952 Ry
     estimated scf accuracy    <       0.00008335 Ry

     The total energy is the sum of the following terms:

     one-electron contribution =    -344.49867709 Ry
     hartree contribution      =     196.38078260 Ry
     xc contribution           =     -93.37214328 Ry
     ewald contribution        =      -2.30841841 Ry
     smearing contrib. (-TS)   =      -0.00000000 Ry

     convergence has been achieved in   7 iterations

     Writing output data file x0.save
 
     init_run     :      0.35s CPU      0.67s WALL (       1 calls)
     electrons    :      1.76s CPU      1.86s WALL (       1 calls)

     Called by init_run:
     wfcinit      :      0.04s CPU      0.04s WALL (       1 calls)
     potinit      :      0.07s CPU      0.07s WALL (       1 calls)

     Called by electrons:
     c_bands      :      0.86s CPU      0.88s WALL (       7 calls)
     sum_band     :      0.42s CPU      0.43s WALL (       7 calls)
     v_of_rho     :      0.22s CPU      0.22s WALL (       8 calls)
     newd         :      0.28s CPU      0.58s WALL (       8 calls)
     mix_rho      :      0.03s CPU      0.03s WALL (       7 calls)

     Called by c_bands:
     init_us_2    :      0.00s CPU      0.00s WALL (      15 calls)
     regterg      :      0.85s CPU      0.87s WALL (       7 calls)

     Called by sum_band:
     sum_band:bec :      0.00s CPU      0.00s WALL (       7 calls)
     addusdens    :      0.28s CPU      0.29s WALL (       7 calls)

     Called by *egterg:
     h_psi        :      0.45s CPU      0.46s WALL (      29 calls)
     s_psi        :      0.01s CPU      0.01s WALL (      29 calls)
     g_psi        :      0.00s CPU      0.00s WALL (      21 calls)
     rdiaghg      :      0.33s CPU      0.34s WALL (      28 calls)

     Called by h_psi:
     h_psi:pot    :      0.45s CPU      0.45s WALL (      29 calls)
     h_psi:calbec :      0.02s CPU      0.02s WALL (      29 calls)
     vloc_psi     :      0.42s CPU      0.43s WALL (      29 calls)
     add_vuspsi   :      0.01s CPU      0.01s WALL (      29 calls)

     General routines
     calbec       :      0.02s CPU      0.02s WALL (      36 calls)
     fft          :      0.26s CPU      0.26s WALL (     124 calls)
     ffts         :      0.01s CPU      0.01s WALL (      15 calls)
     fftw         :      0.44s CPU      0.45s WALL (    2188 calls)
     interpolate  :      0.04s CPU      0.04s WALL (      15 calls)
 
     Parallel routines
     fft_scatt_xy :      0.04s CPU      0.04s WALL (    2327 calls)
     fft_scatt_yz :      0.18s CPU      0.18s WALL (    2327 calls)
 
     PWSCF        :     3.73s CPU         4.71s WALL

 
   This run was terminated on:  18:55:24  22Jun2021            

=------------------------------------------------------------------------------=
   JOB DONE.
=------------------------------------------------------------------------------=
