
     Program PWSCF v.6.2 (svn rev. 14038) starts on 22Jun2021 at 18:54: 2 

     This program is part of the open-source Quantum ESPRESSO suite
     for quantum simulation of materials; please cite
         "P. Giannozzi et al., J. Phys.:Condens. Matter 21 395502 (2009);
         "P. Giannozzi et al., J. Phys.:Condens. Matter 29 465901 (2017);
          URL http://www.quantum-espresso.org", 
     in publications or presentations arising from this work. More details at
     http://www.quantum-espresso.org/quote

     Parallel version (MPI), running on    12 processors

     MPI processes distributed on     1 nodes
     R & G space division:  proc/nbgrp/npool/nimage =      12
     Waiting for input...
     Reading input from standard input

     Current dimensions of program PWSCF are:
     Max number of different atomic species (ntypx) = 10
     Max number of k-points (npk) =  40000
     Max angular momentum in pseudopotentials (lmaxx) =  3
               file Ir.pbe-n-rrkjus_psl.0.2.3.UPF: wavefunction(s)  5D renormalized

     gamma-point specific algorithms are used

     Subspace diagonalization in iterative solution of the eigenvalue problem:
     a serial algorithm will be used

 
     Parallelization info
     --------------------
     sticks:   dense  smooth     PW     G-vecs:    dense   smooth      PW
     Min         353     140     34                17398     4383     546
     Max         356     144     36                17404     4390     556
     Sum        4257    1701    421               208801    52635    6619
 


     bravais-lattice index     =            0
     lattice parameter (alat)  =      13.3514  a.u.
     unit-cell volume          =    2380.0325 (a.u.)^3
     number of atoms/cell      =           25
     number of atomic types    =            4
     number of electrons       =        72.00
     number of Kohn-Sham states=          100
     kinetic-energy cutoff     =      30.0000  Ry
     charge density cutoff     =     300.0000  Ry
     convergence threshold     =      1.0E-04
     mixing beta               =       0.3000
     number of iterations used =            8  plain     mixing
     Exchange-correlation      = PBE ( 1  4  3  4 0 0)

     celldm(1)=  13.351425  celldm(2)=   0.000000  celldm(3)=   0.000000
     celldm(4)=   0.000000  celldm(5)=   0.000000  celldm(6)=   0.000000

     crystal axes: (cart. coord. in units of alat)
               a(1) = (   1.000000   0.000000   0.000000 )  
               a(2) = (   0.000000   1.000000   0.000000 )  
               a(3) = (   0.000000   0.000000   1.000000 )  

     reciprocal axes: (cart. coord. in units 2 pi/alat)
               b(1) = (  1.000000  0.000000  0.000000 )  
               b(2) = (  0.000000  1.000000  0.000000 )  
               b(3) = (  0.000000  0.000000  1.000000 )  


     PseudoPot. # 1 for C  read from file:
     /util/academic/espresso/6.2.1/pseudopotentials/upf_files/C.pbe-n-rrkjus_psl.0.1.UPF
     MD5 check sum: ab446d787031eba755f1d5ee46644bb0
     Pseudo is Ultrasoft + core correction, Zval =  4.0
     Generated using "atomic" code by A. Dal Corso v.5.0.2 svn rev. 9415
     Using radial grid of 1073 points,  4 beta functions with: 
                l(1) =   0
                l(2) =   0
                l(3) =   1
                l(4) =   1
     Q(r) pseudized with 0 coefficients 


     PseudoPot. # 2 for H  read from file:
     /util/academic/espresso/6.2.1/pseudopotentials/upf_files/H.pbe-rrkjus_psl.0.1.UPF
     MD5 check sum: bd57da0722753ddfd9833a65b40bb853
     Pseudo is Ultrasoft, Zval =  1.0
     Generated using "atomic" code by A. Dal Corso v.5.0.2 svn rev. 9415
     Using radial grid of  929 points,  2 beta functions with: 
                l(1) =   0
                l(2) =   0
     Q(r) pseudized with 0 coefficients 


     PseudoPot. # 3 for Ir read from file:
     /util/academic/espresso/6.2.1/pseudopotentials/upf_files/Ir.pbe-n-rrkjus_psl.0.2.3.UPF
     MD5 check sum: 0d5bc36db6a0bde07ee800c0d8fcbb77
     Pseudo is Ultrasoft + core correction, Zval =  9.0
     Generated using "atomic" code by A. Dal Corso v.5.0.2 svn rev. 9415
     Using radial grid of 1277 points,  6 beta functions with: 
                l(1) =   0
                l(2) =   0
                l(3) =   1
                l(4) =   1
                l(5) =   2
                l(6) =   2
     Q(r) pseudized with 0 coefficients 


     PseudoPot. # 4 for N  read from file:
     /util/academic/espresso/6.2.1/pseudopotentials/upf_files/N.pbe-n-rrkjus_psl.0.1.UPF
     MD5 check sum: ed8b6a90f28a53b7d71920e7015d2dd6
     Pseudo is Ultrasoft + core correction, Zval =  5.0
     Generated using "atomic" code by A. Dal Corso v.5.0.2 svn rev. 9415
     Using radial grid of 1085 points,  4 beta functions with: 
                l(1) =   0
                l(2) =   0
                l(3) =   1
                l(4) =   1
     Q(r) pseudized with 0 coefficients 


     atomic species   valence    mass     pseudopotential
        C              4.00    12.01000     C ( 1.00)
        H              1.00     1.00700     H ( 1.00)
        Ir             9.00   192.21700     Ir( 1.00)
        N              5.00    14.00600     N ( 1.00)

     No symmetry found



   Cartesian axes

     site n.     atom                  positions (alat units)
         1           Ir  tau(   1) = (  -0.0014909   0.0042279   0.0007050  )
         2           N   tau(   2) = (   0.1308517  -0.2138929  -0.1673164  )
         3           N   tau(   3) = (  -0.2463736  -0.0047481  -0.1637294  )
         4           N   tau(   4) = (   0.1430365   0.2146209  -0.1591432  )
         5           C   tau(   5) = (  -0.0737599   0.2239652   0.1507895  )
         6           C   tau(   6) = (   0.2160379  -0.0468322   0.1604087  )
         7           C   tau(   7) = (   0.2744401  -0.2772303  -0.0759631  )
         8           C   tau(   8) = (   0.3216874  -0.1939230   0.1040397  )
         9           C   tau(   9) = (  -0.1486174  -0.1638470   0.1533692  )
        10           C   tau(  10) = (   0.0820425   0.3751851  -0.0900734  )
        11           C   tau(  11) = (  -0.0061568   0.4001542   0.0863037  )
        12           C   tau(  12) = (  -0.3603614  -0.1358696  -0.1010834  )
        13           C   tau(  13) = (  -0.3083347  -0.2330365   0.0630720  )
        14           H   tau(  14) = (   0.2347932   0.0267987   0.2920788  )
        15           H   tau(  15) = (   0.4263213  -0.2615250   0.1845341  )
        16           H   tau(  16) = (   0.3257222  -0.4039949  -0.1388808  )
        17           H   tau(  17) = (   0.1000597   0.5086522  -0.1748738  )
        18           H   tau(  18) = (  -0.0215436   0.5262216   0.1733666  )
        19           H   tau(  19) = (  -0.1401505   0.2138442   0.2907192  )
        20           H   tau(  20) = (  -0.3525000  -0.3801950   0.0619433  )
        21           H   tau(  21) = (  -0.0972257  -0.2422721   0.2753822  )
        22           H   tau(  22) = (  -0.5004275  -0.1548720  -0.1646787  )
        23           H   tau(  23) = (   0.0893012  -0.2754807  -0.2893935  )
        24           H   tau(  24) = (   0.1894625   0.2171043  -0.2983099  )
        25           H   tau(  25) = (  -0.3158958   0.0880378  -0.2543091  )

     number of k points=     1  gaussian smearing, width (Ry)=  0.0100
                       cart. coord. in units 2pi/alat
        k(    1) = (   0.0000000   0.0000000   0.0000000), wk =   2.0000000

     Dense  grid:   104401 G-vectors     FFT dimensions: (  75,  75,  75)

     Smooth grid:    26318 G-vectors     FFT dimensions: (  48,  48,  48)

     Estimated max dynamical RAM per process >      46.16 MB

     Estimated total dynamical RAM >     553.92 MB

     Check: negative/imaginary core charge=   -0.000002    0.000000

     Initial potential from superposition of free atoms

     starting charge   71.99934, renormalised to   72.00000
     Starting wfc are   69 randomized atomic wfcs +   31 random wfc

     total cpu time spent up to now is        2.4 secs

     Self-consistent Calculation

     iteration #  1     ecut=    30.00 Ry     beta= 0.30
     Davidson diagonalization with overlap
     ethr =  1.00E-02,  avg # of iterations =  5.0

     total cpu time spent up to now is        2.8 secs

     total energy              =    -243.62137562 Ry
     Harris-Foulkes estimate   =    -244.90494508 Ry
     estimated scf accuracy    <       3.38662839 Ry

     iteration #  2     ecut=    30.00 Ry     beta= 0.30
     Davidson diagonalization with overlap
     ethr =  4.70E-03,  avg # of iterations =  1.0

     total cpu time spent up to now is        3.0 secs

     total energy              =    -243.70153995 Ry
     Harris-Foulkes estimate   =    -244.00651623 Ry
     estimated scf accuracy    <       0.85271867 Ry

     iteration #  3     ecut=    30.00 Ry     beta= 0.30
     Davidson diagonalization with overlap
     ethr =  1.18E-03,  avg # of iterations =  4.0

     total cpu time spent up to now is        3.3 secs

     total energy              =    -243.73498158 Ry
     Harris-Foulkes estimate   =    -243.83659019 Ry
     estimated scf accuracy    <       0.32167418 Ry

     iteration #  4     ecut=    30.00 Ry     beta= 0.30
     Davidson diagonalization with overlap
     ethr =  4.47E-04,  avg # of iterations =  3.0

     negative rho (up, down):  2.823E-07 0.000E+00

     total cpu time spent up to now is        3.5 secs

     total energy              =    -243.75706407 Ry
     Harris-Foulkes estimate   =    -243.77456039 Ry
     estimated scf accuracy    <       0.05238296 Ry

     iteration #  5     ecut=    30.00 Ry     beta= 0.30
     Davidson diagonalization with overlap
     ethr =  7.28E-05,  avg # of iterations =  8.0

     negative rho (up, down):  1.996E-07 0.000E+00

     total cpu time spent up to now is        3.9 secs

     total energy              =    -243.76570674 Ry
     Harris-Foulkes estimate   =    -243.76649654 Ry
     estimated scf accuracy    <       0.00476917 Ry

     iteration #  6     ecut=    30.00 Ry     beta= 0.30
     Davidson diagonalization with overlap
     ethr =  6.62E-06,  avg # of iterations =  2.0

     negative rho (up, down):  5.954E-08 0.000E+00

     total cpu time spent up to now is        4.1 secs

     total energy              =    -243.76596958 Ry
     Harris-Foulkes estimate   =    -243.76605940 Ry
     estimated scf accuracy    <       0.00084992 Ry

     iteration #  7     ecut=    30.00 Ry     beta= 0.30
     Davidson diagonalization with overlap
     ethr =  1.18E-06,  avg # of iterations =  2.0

     total cpu time spent up to now is        4.3 secs

     End of self-consistent calculation

          k = 0.0000 0.0000 0.0000 (  3310 PWs)   bands (ev):

   -18.8177 -18.0664 -18.0040 -14.4278 -14.1142 -13.8643 -11.6586 -10.8020
   -10.6267  -9.1925  -8.7968  -8.5057  -8.2137  -8.0662  -7.5768  -6.5463
    -6.3071  -5.9760  -5.6203  -5.3274  -5.1261  -4.8785  -4.4236  -4.1041
    -3.9386  -3.6512  -3.3419  -2.5041  -2.2248  -2.0947  -1.6419  -1.6235
    -1.3019  -0.4652  -0.2591   0.4687   1.9791   2.5293   2.9750   3.1908
     4.8535   5.0559   5.3305   5.5395   5.7250   5.7890   6.0550   6.1532
     6.7112   7.0325   7.1542   7.4345   7.8661   7.9448   8.2658   8.5841
     8.7183   9.0059   9.1895   9.3997   9.6487   9.6815   9.7928  10.7505
    10.8341  10.9622  11.0617  11.1619  11.4884  11.7747  11.9928  12.2432
    12.3091  12.6234  12.8261  12.9916  13.0405  13.4785  13.6705  13.7803
    14.0987  14.2644  14.3480  14.5313  14.8065  15.0132  15.0923  15.1775
    15.3227  15.3456  15.5094  15.7774  15.8484  15.9263  16.2905  16.5247
    16.7196  16.9911  17.0990  17.1345

     the Fermi energy is     1.1543 ev

!    total energy              =    -243.76611308 Ry
     Harris-Foulkes estimate   =    -243.76605073 Ry
     estimated scf accuracy    <       0.00007825 Ry

     The total energy is the sum of the following terms:

     one-electron contribution =    -352.19149805 Ry
     hartree contribution      =     200.25994793 Ry
     xc contribution           =     -93.60186526 Ry
     ewald contribution        =       1.76730230 Ry
     smearing contrib. (-TS)   =      -0.00000000 Ry

     convergence has been achieved in   7 iterations

     Writing output data file x0.save
 
     init_run     :      0.36s CPU      0.40s WALL (       1 calls)
     electrons    :      1.92s CPU      2.02s WALL (       1 calls)

     Called by init_run:
     wfcinit      :      0.03s CPU      0.03s WALL (       1 calls)
     potinit      :      0.07s CPU      0.07s WALL (       1 calls)

     Called by electrons:
     c_bands      :      0.95s CPU      0.98s WALL (       7 calls)
     sum_band     :      0.43s CPU      0.44s WALL (       7 calls)
     v_of_rho     :      0.22s CPU      0.23s WALL (       8 calls)
     newd         :      0.28s CPU      0.29s WALL (       8 calls)
     mix_rho      :      0.03s CPU      0.03s WALL (       7 calls)

     Called by c_bands:
     init_us_2    :      0.00s CPU      0.00s WALL (      15 calls)
     regterg      :      0.94s CPU      0.96s WALL (       7 calls)

     Called by sum_band:
     sum_band:bec :      0.00s CPU      0.00s WALL (       7 calls)
     addusdens    :      0.29s CPU      0.30s WALL (       7 calls)

     Called by *egterg:
     h_psi        :      0.44s CPU      0.46s WALL (      33 calls)
     s_psi        :      0.01s CPU      0.01s WALL (      33 calls)
     g_psi        :      0.00s CPU      0.00s WALL (      25 calls)
     rdiaghg      :      0.40s CPU      0.40s WALL (      32 calls)

     Called by h_psi:
     h_psi:pot    :      0.43s CPU      0.45s WALL (      33 calls)
     h_psi:calbec :      0.02s CPU      0.02s WALL (      33 calls)
     vloc_psi     :      0.41s CPU      0.42s WALL (      33 calls)
     add_vuspsi   :      0.01s CPU      0.01s WALL (      33 calls)

     General routines
     calbec       :      0.02s CPU      0.02s WALL (      40 calls)
     fft          :      0.23s CPU      0.23s WALL (     124 calls)
     ffts         :      0.01s CPU      0.01s WALL (      15 calls)
     fftw         :      0.43s CPU      0.45s WALL (    2188 calls)
     interpolate  :      0.03s CPU      0.04s WALL (      15 calls)
 
     Parallel routines
     fft_scatt_xy :      0.04s CPU      0.04s WALL (    2327 calls)
     fft_scatt_yz :      0.15s CPU      0.15s WALL (    2327 calls)
 
     PWSCF        :     4.06s CPU         4.95s WALL

 
   This run was terminated on:  18:54: 7  22Jun2021            

=------------------------------------------------------------------------------=
   JOB DONE.
=------------------------------------------------------------------------------=
