
     Program PWSCF v.6.2 (svn rev. 14038) starts on 22Jun2021 at 18:58: 1 

     This program is part of the open-source Quantum ESPRESSO suite
     for quantum simulation of materials; please cite
         "P. Giannozzi et al., J. Phys.:Condens. Matter 21 395502 (2009);
         "P. Giannozzi et al., J. Phys.:Condens. Matter 29 465901 (2017);
          URL http://www.quantum-espresso.org", 
     in publications or presentations arising from this work. More details at
     http://www.quantum-espresso.org/quote

     Parallel version (MPI), running on    12 processors

     MPI processes distributed on     1 nodes
     R & G space division:  proc/nbgrp/npool/nimage =      12
     Waiting for input...
     Reading input from standard input

     Current dimensions of program PWSCF are:
     Max number of different atomic species (ntypx) = 10
     Max number of k-points (npk) =  40000
     Max angular momentum in pseudopotentials (lmaxx) =  3
               file Ir.pbe-n-rrkjus_psl.0.2.3.UPF: wavefunction(s)  5D renormalized

     gamma-point specific algorithms are used

     Subspace diagonalization in iterative solution of the eigenvalue problem:
     a serial algorithm will be used

 
     Parallelization info
     --------------------
     sticks:   dense  smooth     PW     G-vecs:    dense   smooth      PW
     Min         353     140     34                17398     4383     546
     Max         356     144     36                17404     4390     556
     Sum        4257    1701    421               208801    52635    6619
 


     bravais-lattice index     =            0
     lattice parameter (alat)  =      13.3514  a.u.
     unit-cell volume          =    2380.0325 (a.u.)^3
     number of atoms/cell      =           25
     number of atomic types    =            4
     number of electrons       =        72.00
     number of Kohn-Sham states=          100
     kinetic-energy cutoff     =      30.0000  Ry
     charge density cutoff     =     300.0000  Ry
     convergence threshold     =      1.0E-04
     mixing beta               =       0.3000
     number of iterations used =            8  plain     mixing
     Exchange-correlation      = PBE ( 1  4  3  4 0 0)

     celldm(1)=  13.351425  celldm(2)=   0.000000  celldm(3)=   0.000000
     celldm(4)=   0.000000  celldm(5)=   0.000000  celldm(6)=   0.000000

     crystal axes: (cart. coord. in units of alat)
               a(1) = (   1.000000   0.000000   0.000000 )  
               a(2) = (   0.000000   1.000000   0.000000 )  
               a(3) = (   0.000000   0.000000   1.000000 )  

     reciprocal axes: (cart. coord. in units 2 pi/alat)
               b(1) = (  1.000000  0.000000  0.000000 )  
               b(2) = (  0.000000  1.000000  0.000000 )  
               b(3) = (  0.000000  0.000000  1.000000 )  


     PseudoPot. # 1 for C  read from file:
     /util/academic/espresso/6.2.1/pseudopotentials/upf_files/C.pbe-n-rrkjus_psl.0.1.UPF
     MD5 check sum: ab446d787031eba755f1d5ee46644bb0
     Pseudo is Ultrasoft + core correction, Zval =  4.0
     Generated using "atomic" code by A. Dal Corso v.5.0.2 svn rev. 9415
     Using radial grid of 1073 points,  4 beta functions with: 
                l(1) =   0
                l(2) =   0
                l(3) =   1
                l(4) =   1
     Q(r) pseudized with 0 coefficients 


     PseudoPot. # 2 for H  read from file:
     /util/academic/espresso/6.2.1/pseudopotentials/upf_files/H.pbe-rrkjus_psl.0.1.UPF
     MD5 check sum: bd57da0722753ddfd9833a65b40bb853
     Pseudo is Ultrasoft, Zval =  1.0
     Generated using "atomic" code by A. Dal Corso v.5.0.2 svn rev. 9415
     Using radial grid of  929 points,  2 beta functions with: 
                l(1) =   0
                l(2) =   0
     Q(r) pseudized with 0 coefficients 


     PseudoPot. # 3 for Ir read from file:
     /util/academic/espresso/6.2.1/pseudopotentials/upf_files/Ir.pbe-n-rrkjus_psl.0.2.3.UPF
     MD5 check sum: 0d5bc36db6a0bde07ee800c0d8fcbb77
     Pseudo is Ultrasoft + core correction, Zval =  9.0
     Generated using "atomic" code by A. Dal Corso v.5.0.2 svn rev. 9415
     Using radial grid of 1277 points,  6 beta functions with: 
                l(1) =   0
                l(2) =   0
                l(3) =   1
                l(4) =   1
                l(5) =   2
                l(6) =   2
     Q(r) pseudized with 0 coefficients 


     PseudoPot. # 4 for N  read from file:
     /util/academic/espresso/6.2.1/pseudopotentials/upf_files/N.pbe-n-rrkjus_psl.0.1.UPF
     MD5 check sum: ed8b6a90f28a53b7d71920e7015d2dd6
     Pseudo is Ultrasoft + core correction, Zval =  5.0
     Generated using "atomic" code by A. Dal Corso v.5.0.2 svn rev. 9415
     Using radial grid of 1085 points,  4 beta functions with: 
                l(1) =   0
                l(2) =   0
                l(3) =   1
                l(4) =   1
     Q(r) pseudized with 0 coefficients 


     atomic species   valence    mass     pseudopotential
        C              4.00    12.01000     C ( 1.00)
        H              1.00     1.00700     H ( 1.00)
        Ir             9.00   192.21700     Ir( 1.00)
        N              5.00    14.00600     N ( 1.00)

     No symmetry found



   Cartesian axes

     site n.     atom                  positions (alat units)
         1           Ir  tau(   1) = (   0.0004741   0.0066675   0.0045986  )
         2           N   tau(   2) = (   0.1665046  -0.1903451  -0.1625597  )
         3           N   tau(   3) = (  -0.2390935   0.0009680  -0.1876581  )
         4           N   tau(   4) = (   0.1043733   0.2111281  -0.1707420  )
         5           C   tau(   5) = (  -0.0855803   0.2250502   0.1513377  )
         6           C   tau(   6) = (   0.2122758  -0.0519019   0.1852898  )
         7           C   tau(   7) = (   0.2789080  -0.2823585  -0.0481606  )
         8           C   tau(   8) = (   0.3129860  -0.2160430   0.1440433  )
         9           C   tau(   9) = (  -0.1577610  -0.1952717   0.1279369  )
        10           C   tau(  10) = (   0.0657921   0.3829889  -0.1002506  )
        11           C   tau(  11) = (  -0.0112698   0.3896298   0.0826242  )
        12           C   tau(  12) = (  -0.3479360  -0.1339623  -0.1439206  )
        13           C   tau(  13) = (  -0.3182282  -0.2395114   0.0302514  )
        14           H   tau(  14) = (   0.2440003   0.0527518   0.3049527  )
        15           H   tau(  15) = (   0.4217546  -0.2811765   0.2468563  )
        16           H   tau(  16) = (   0.3769212  -0.4009918  -0.1017689  )
        17           H   tau(  17) = (   0.1137301   0.5087718  -0.1965931  )
        18           H   tau(  18) = (  -0.0158239   0.5218870   0.1681657  )
        19           H   tau(  19) = (  -0.1719650   0.2170680   0.2932148  )
        20           H   tau(  20) = (  -0.3867347  -0.3702079   0.0615622  )
        21           H   tau(  21) = (  -0.1228269  -0.2764414   0.2653567  )
        22           H   tau(  22) = (  -0.4820239  -0.1725656  -0.2177107  )
        23           H   tau(  23) = (   0.2000812  -0.2221108  -0.2974890  )
        24           H   tau(  24) = (   0.1548478   0.2265204  -0.3113397  )
        25           H   tau(  25) = (  -0.2585281   0.0689050  -0.3139271  )

     number of k points=     1  gaussian smearing, width (Ry)=  0.0100
                       cart. coord. in units 2pi/alat
        k(    1) = (   0.0000000   0.0000000   0.0000000), wk =   2.0000000

     Dense  grid:   104401 G-vectors     FFT dimensions: (  75,  75,  75)

     Smooth grid:    26318 G-vectors     FFT dimensions: (  48,  48,  48)

     Estimated max dynamical RAM per process >      46.16 MB

     Estimated total dynamical RAM >     553.92 MB

     Check: negative/imaginary core charge=   -0.000002    0.000000

     Initial potential from superposition of free atoms

     starting charge   71.99934, renormalised to   72.00000
     Starting wfc are   69 randomized atomic wfcs +   31 random wfc

     total cpu time spent up to now is        2.4 secs

     Self-consistent Calculation

     iteration #  1     ecut=    30.00 Ry     beta= 0.30
     Davidson diagonalization with overlap
     ethr =  1.00E-02,  avg # of iterations =  5.0

     total cpu time spent up to now is        2.8 secs

     total energy              =    -243.62583964 Ry
     Harris-Foulkes estimate   =    -244.86008691 Ry
     estimated scf accuracy    <       3.22565670 Ry

     iteration #  2     ecut=    30.00 Ry     beta= 0.30
     Davidson diagonalization with overlap
     ethr =  4.48E-03,  avg # of iterations =  1.0

     total cpu time spent up to now is        3.0 secs

     total energy              =    -243.74540798 Ry
     Harris-Foulkes estimate   =    -244.03173254 Ry
     estimated scf accuracy    <       0.82186243 Ry

     iteration #  3     ecut=    30.00 Ry     beta= 0.30
     Davidson diagonalization with overlap
     ethr =  1.14E-03,  avg # of iterations =  5.0

     total cpu time spent up to now is        3.3 secs

     total energy              =    -243.78290330 Ry
     Harris-Foulkes estimate   =    -243.88330356 Ry
     estimated scf accuracy    <       0.33346826 Ry

     iteration #  4     ecut=    30.00 Ry     beta= 0.30
     Davidson diagonalization with overlap
     ethr =  4.63E-04,  avg # of iterations =  4.0

     negative rho (up, down):  2.089E-08 0.000E+00

     total cpu time spent up to now is        3.5 secs

     total energy              =    -243.80390579 Ry
     Harris-Foulkes estimate   =    -243.82257135 Ry
     estimated scf accuracy    <       0.05578031 Ry

     iteration #  5     ecut=    30.00 Ry     beta= 0.30
     Davidson diagonalization with overlap
     ethr =  7.75E-05,  avg # of iterations =  8.0

     negative rho (up, down):  4.111E-08 0.000E+00

     total cpu time spent up to now is        3.9 secs

     total energy              =    -243.81194811 Ry
     Harris-Foulkes estimate   =    -243.81270762 Ry
     estimated scf accuracy    <       0.00457267 Ry

     iteration #  6     ecut=    30.00 Ry     beta= 0.30
     Davidson diagonalization with overlap
     ethr =  6.35E-06,  avg # of iterations =  2.0

     total cpu time spent up to now is        4.1 secs

     total energy              =    -243.81236887 Ry
     Harris-Foulkes estimate   =    -243.81247478 Ry
     estimated scf accuracy    <       0.00083242 Ry

     iteration #  7     ecut=    30.00 Ry     beta= 0.30
     Davidson diagonalization with overlap
     ethr =  1.16E-06,  avg # of iterations =  1.0

     total cpu time spent up to now is        4.3 secs

     total energy              =    -243.81245986 Ry
     Harris-Foulkes estimate   =    -243.81244026 Ry
     estimated scf accuracy    <       0.00011068 Ry

     iteration #  8     ecut=    30.00 Ry     beta= 0.30
     Davidson diagonalization with overlap
     ethr =  1.54E-07,  avg # of iterations =  2.0

     total cpu time spent up to now is        4.6 secs

     End of self-consistent calculation

          k = 0.0000 0.0000 0.0000 (  3310 PWs)   bands (ev):

   -18.4992 -18.3119 -17.8762 -14.2241 -14.0053 -13.7411 -11.2136 -10.6454
   -10.3538  -9.0527  -8.3958  -8.1383  -8.0607  -7.8276  -7.4704  -6.3982
    -5.8783  -5.7789  -5.5186  -5.1300  -5.0740  -4.8682  -4.1907  -4.0657
    -3.8374  -3.6244  -3.4787  -2.3872  -2.3230  -2.0789  -1.7415  -1.4184
    -1.2501  -0.4590  -0.3035   0.2967   2.1445   2.6071   2.9562   3.1524
     4.6073   4.8366   5.0743   5.4484   5.4652   5.7372   5.9420   6.1052
     6.4442   6.5226   6.8911   7.4368   7.6351   7.6997   8.0616   8.3625
     8.4412   8.6750   9.1122   9.2149   9.4624   9.6061   9.9433  10.4829
    10.7760  10.9203  11.0308  11.3063  11.4977  11.6262  12.0478  12.1031
    12.2598  12.4803  12.6276  12.8183  12.9478  13.0913  13.2947  13.4926
    13.9604  14.0025  14.1641  14.3856  14.4232  14.5722  14.6127  14.9204
    14.9920  15.1716  15.3862  15.6832  15.8857  16.0663  16.2155  16.4868
    16.5799  16.7725  16.8675  16.9335

     the Fermi energy is     1.4657 ev

!    total energy              =    -243.81252212 Ry
     Harris-Foulkes estimate   =    -243.81248412 Ry
     estimated scf accuracy    <       0.00002018 Ry

     The total energy is the sum of the following terms:

     one-electron contribution =    -328.68991092 Ry
     hartree contribution      =     188.48564946 Ry
     xc contribution           =     -93.01571424 Ry
     ewald contribution        =     -10.59254643 Ry
     smearing contrib. (-TS)   =      -0.00000000 Ry

     convergence has been achieved in   8 iterations

     Writing output data file x0.save
 
     init_run     :      0.38s CPU      0.43s WALL (       1 calls)
     electrons    :      2.11s CPU      2.21s WALL (       1 calls)

     Called by init_run:
     wfcinit      :      0.03s CPU      0.04s WALL (       1 calls)
     potinit      :      0.08s CPU      0.08s WALL (       1 calls)

     Called by electrons:
     c_bands      :      1.06s CPU      1.09s WALL (       8 calls)
     sum_band     :      0.49s CPU      0.50s WALL (       8 calls)
     v_of_rho     :      0.25s CPU      0.26s WALL (       9 calls)
     newd         :      0.31s CPU      0.33s WALL (       9 calls)
     mix_rho      :      0.03s CPU      0.03s WALL (       8 calls)

     Called by c_bands:
     init_us_2    :      0.01s CPU      0.01s WALL (      17 calls)
     regterg      :      1.04s CPU      1.07s WALL (       8 calls)

     Called by sum_band:
     sum_band:bec :      0.00s CPU      0.00s WALL (       8 calls)
     addusdens    :      0.33s CPU      0.34s WALL (       8 calls)

     Called by *egterg:
     h_psi        :      0.48s CPU      0.50s WALL (      37 calls)
     s_psi        :      0.01s CPU      0.01s WALL (      37 calls)
     g_psi        :      0.00s CPU      0.00s WALL (      28 calls)
     rdiaghg      :      0.44s CPU      0.45s WALL (      36 calls)

     Called by h_psi:
     h_psi:pot    :      0.48s CPU      0.50s WALL (      37 calls)
     h_psi:calbec :      0.02s CPU      0.02s WALL (      37 calls)
     vloc_psi     :      0.45s CPU      0.46s WALL (      37 calls)
     add_vuspsi   :      0.01s CPU      0.01s WALL (      37 calls)

     General routines
     calbec       :      0.03s CPU      0.03s WALL (      45 calls)
     fft          :      0.26s CPU      0.26s WALL (     140 calls)
     ffts         :      0.01s CPU      0.01s WALL (      17 calls)
     fftw         :      0.48s CPU      0.49s WALL (    2468 calls)
     interpolate  :      0.04s CPU      0.04s WALL (      17 calls)
 
     Parallel routines
     fft_scatt_xy :      0.04s CPU      0.04s WALL (    2625 calls)
     fft_scatt_yz :      0.14s CPU      0.15s WALL (    2625 calls)
 
     PWSCF        :     3.96s CPU         5.03s WALL

 
   This run was terminated on:  18:58: 6  22Jun2021            

=------------------------------------------------------------------------------=
   JOB DONE.
=------------------------------------------------------------------------------=
