
     Program PWSCF v.6.2 (svn rev. 14038) starts on 22Jun2021 at 18:54:32 

     This program is part of the open-source Quantum ESPRESSO suite
     for quantum simulation of materials; please cite
         "P. Giannozzi et al., J. Phys.:Condens. Matter 21 395502 (2009);
         "P. Giannozzi et al., J. Phys.:Condens. Matter 29 465901 (2017);
          URL http://www.quantum-espresso.org", 
     in publications or presentations arising from this work. More details at
     http://www.quantum-espresso.org/quote

     Parallel version (MPI), running on    12 processors

     MPI processes distributed on     1 nodes
     R & G space division:  proc/nbgrp/npool/nimage =      12
     Waiting for input...
     Reading input from standard input

     Current dimensions of program PWSCF are:
     Max number of different atomic species (ntypx) = 10
     Max number of k-points (npk) =  40000
     Max angular momentum in pseudopotentials (lmaxx) =  3
               file Ir.pbe-n-rrkjus_psl.0.2.3.UPF: wavefunction(s)  5D renormalized

     gamma-point specific algorithms are used

     Subspace diagonalization in iterative solution of the eigenvalue problem:
     a serial algorithm will be used

 
     Parallelization info
     --------------------
     sticks:   dense  smooth     PW     G-vecs:    dense   smooth      PW
     Min         353     140     34                17398     4383     546
     Max         356     144     36                17404     4390     556
     Sum        4257    1701    421               208801    52635    6619
 


     bravais-lattice index     =            0
     lattice parameter (alat)  =      13.3514  a.u.
     unit-cell volume          =    2380.0325 (a.u.)^3
     number of atoms/cell      =           25
     number of atomic types    =            4
     number of electrons       =        72.00
     number of Kohn-Sham states=          100
     kinetic-energy cutoff     =      30.0000  Ry
     charge density cutoff     =     300.0000  Ry
     convergence threshold     =      1.0E-04
     mixing beta               =       0.3000
     number of iterations used =            8  plain     mixing
     Exchange-correlation      = PBE ( 1  4  3  4 0 0)

     celldm(1)=  13.351425  celldm(2)=   0.000000  celldm(3)=   0.000000
     celldm(4)=   0.000000  celldm(5)=   0.000000  celldm(6)=   0.000000

     crystal axes: (cart. coord. in units of alat)
               a(1) = (   1.000000   0.000000   0.000000 )  
               a(2) = (   0.000000   1.000000   0.000000 )  
               a(3) = (   0.000000   0.000000   1.000000 )  

     reciprocal axes: (cart. coord. in units 2 pi/alat)
               b(1) = (  1.000000  0.000000  0.000000 )  
               b(2) = (  0.000000  1.000000  0.000000 )  
               b(3) = (  0.000000  0.000000  1.000000 )  


     PseudoPot. # 1 for C  read from file:
     /util/academic/espresso/6.2.1/pseudopotentials/upf_files/C.pbe-n-rrkjus_psl.0.1.UPF
     MD5 check sum: ab446d787031eba755f1d5ee46644bb0
     Pseudo is Ultrasoft + core correction, Zval =  4.0
     Generated using "atomic" code by A. Dal Corso v.5.0.2 svn rev. 9415
     Using radial grid of 1073 points,  4 beta functions with: 
                l(1) =   0
                l(2) =   0
                l(3) =   1
                l(4) =   1
     Q(r) pseudized with 0 coefficients 


     PseudoPot. # 2 for H  read from file:
     /util/academic/espresso/6.2.1/pseudopotentials/upf_files/H.pbe-rrkjus_psl.0.1.UPF
     MD5 check sum: bd57da0722753ddfd9833a65b40bb853
     Pseudo is Ultrasoft, Zval =  1.0
     Generated using "atomic" code by A. Dal Corso v.5.0.2 svn rev. 9415
     Using radial grid of  929 points,  2 beta functions with: 
                l(1) =   0
                l(2) =   0
     Q(r) pseudized with 0 coefficients 


     PseudoPot. # 3 for Ir read from file:
     /util/academic/espresso/6.2.1/pseudopotentials/upf_files/Ir.pbe-n-rrkjus_psl.0.2.3.UPF
     MD5 check sum: 0d5bc36db6a0bde07ee800c0d8fcbb77
     Pseudo is Ultrasoft + core correction, Zval =  9.0
     Generated using "atomic" code by A. Dal Corso v.5.0.2 svn rev. 9415
     Using radial grid of 1277 points,  6 beta functions with: 
                l(1) =   0
                l(2) =   0
                l(3) =   1
                l(4) =   1
                l(5) =   2
                l(6) =   2
     Q(r) pseudized with 0 coefficients 


     PseudoPot. # 4 for N  read from file:
     /util/academic/espresso/6.2.1/pseudopotentials/upf_files/N.pbe-n-rrkjus_psl.0.1.UPF
     MD5 check sum: ed8b6a90f28a53b7d71920e7015d2dd6
     Pseudo is Ultrasoft + core correction, Zval =  5.0
     Generated using "atomic" code by A. Dal Corso v.5.0.2 svn rev. 9415
     Using radial grid of 1085 points,  4 beta functions with: 
                l(1) =   0
                l(2) =   0
                l(3) =   1
                l(4) =   1
     Q(r) pseudized with 0 coefficients 


     atomic species   valence    mass     pseudopotential
        C              4.00    12.01000     C ( 1.00)
        H              1.00     1.00700     H ( 1.00)
        Ir             9.00   192.21700     Ir( 1.00)
        N              5.00    14.00600     N ( 1.00)

     No symmetry found



   Cartesian axes

     site n.     atom                  positions (alat units)
         1           Ir  tau(   1) = (  -0.0009066   0.0044823   0.0017229  )
         2           N   tau(   2) = (   0.1308841  -0.2030585  -0.1730453  )
         3           N   tau(   3) = (  -0.2449298  -0.0016699  -0.1751271  )
         4           N   tau(   4) = (   0.1328031   0.2152865  -0.1535060  )
         5           C   tau(   5) = (  -0.0719920   0.2283004   0.1511485  )
         6           C   tau(   6) = (   0.2105105  -0.0523990   0.1719121  )
         7           C   tau(   7) = (   0.2674863  -0.2789025  -0.0698575  )
         8           C   tau(   8) = (   0.3189953  -0.2018913   0.1120229  )
         9           C   tau(   9) = (  -0.1466761  -0.1791719   0.1439393  )
        10           C   tau(  10) = (   0.0801127   0.3816050  -0.0986282  )
        11           C   tau(  11) = (  -0.0034923   0.3945096   0.0863051  )
        12           C   tau(  12) = (  -0.3593333  -0.1272218  -0.1065175  )
        13           C   tau(  13) = (  -0.3081567  -0.2375580   0.0576308  )
        14           H   tau(  14) = (   0.2595985   0.0128759   0.3014705  )
        15           H   tau(  15) = (   0.4181183  -0.2724800   0.1993979  )
        16           H   tau(  16) = (   0.3673798  -0.3885739  -0.1032658  )
        17           H   tau(  17) = (   0.1050202   0.4907110  -0.1988854  )
        18           H   tau(  18) = (  -0.0104529   0.5255581   0.1582533  )
        19           H   tau(  19) = (  -0.1315210   0.2132090   0.2882356  )
        20           H   tau(  20) = (  -0.3848017  -0.3648780   0.0890594  )
        21           H   tau(  21) = (  -0.0923673  -0.2392185   0.2749381  )
        22           H   tau(  22) = (  -0.4872669  -0.1480968  -0.1795393  )
        23           H   tau(  23) = (   0.1107261  -0.2715795  -0.3047436  )
        24           H   tau(  24) = (   0.2000394   0.2091497  -0.2888088  )
        25           H   tau(  25) = (  -0.2927022   0.0983065  -0.2783637  )

     number of k points=     1  gaussian smearing, width (Ry)=  0.0100
                       cart. coord. in units 2pi/alat
        k(    1) = (   0.0000000   0.0000000   0.0000000), wk =   2.0000000

     Dense  grid:   104401 G-vectors     FFT dimensions: (  75,  75,  75)

     Smooth grid:    26318 G-vectors     FFT dimensions: (  48,  48,  48)

     Estimated max dynamical RAM per process >      46.16 MB

     Estimated total dynamical RAM >     553.92 MB

     Check: negative/imaginary core charge=   -0.000002    0.000000

     Initial potential from superposition of free atoms

     starting charge   71.99934, renormalised to   72.00000
     Starting wfc are   69 randomized atomic wfcs +   31 random wfc

     total cpu time spent up to now is        2.6 secs

     Self-consistent Calculation

     iteration #  1     ecut=    30.00 Ry     beta= 0.30
     Davidson diagonalization with overlap
     ethr =  1.00E-02,  avg # of iterations =  5.0

     total cpu time spent up to now is        3.0 secs

     total energy              =    -243.67612279 Ry
     Harris-Foulkes estimate   =    -244.95256192 Ry
     estimated scf accuracy    <       3.37200820 Ry

     iteration #  2     ecut=    30.00 Ry     beta= 0.30
     Davidson diagonalization with overlap
     ethr =  4.68E-03,  avg # of iterations =  1.0

     total cpu time spent up to now is        3.2 secs

     total energy              =    -243.74628623 Ry
     Harris-Foulkes estimate   =    -244.04907168 Ry
     estimated scf accuracy    <       0.84196294 Ry

     iteration #  3     ecut=    30.00 Ry     beta= 0.30
     Davidson diagonalization with overlap
     ethr =  1.17E-03,  avg # of iterations =  5.0

     total cpu time spent up to now is        3.5 secs

     total energy              =    -243.77867416 Ry
     Harris-Foulkes estimate   =    -243.88154319 Ry
     estimated scf accuracy    <       0.32968887 Ry

     iteration #  4     ecut=    30.00 Ry     beta= 0.30
     Davidson diagonalization with overlap
     ethr =  4.58E-04,  avg # of iterations =  3.0

     negative rho (up, down):  2.816E-07 0.000E+00

     total cpu time spent up to now is        3.8 secs

     total energy              =    -243.80043496 Ry
     Harris-Foulkes estimate   =    -243.81897294 Ry
     estimated scf accuracy    <       0.05430957 Ry

     iteration #  5     ecut=    30.00 Ry     beta= 0.30
     Davidson diagonalization with overlap
     ethr =  7.54E-05,  avg # of iterations =  7.0

     negative rho (up, down):  1.751E-07 0.000E+00

     total cpu time spent up to now is        4.1 secs

     total energy              =    -243.80941918 Ry
     Harris-Foulkes estimate   =    -243.81012460 Ry
     estimated scf accuracy    <       0.00445158 Ry

     iteration #  6     ecut=    30.00 Ry     beta= 0.30
     Davidson diagonalization with overlap
     ethr =  6.18E-06,  avg # of iterations =  2.0

     negative rho (up, down):  4.923E-08 0.000E+00

     total cpu time spent up to now is        4.3 secs

     total energy              =    -243.80973436 Ry
     Harris-Foulkes estimate   =    -243.80983743 Ry
     estimated scf accuracy    <       0.00085283 Ry

     iteration #  7     ecut=    30.00 Ry     beta= 0.30
     Davidson diagonalization with overlap
     ethr =  1.18E-06,  avg # of iterations =  2.0

     total cpu time spent up to now is        4.6 secs

     End of self-consistent calculation

          k = 0.0000 0.0000 0.0000 (  3310 PWs)   bands (ev):

   -18.4068 -18.0971 -17.9419 -14.3478 -14.0485 -13.8105 -11.6003 -10.8095
   -10.5318  -9.1024  -8.6658  -8.4413  -8.2176  -8.0782  -7.6932  -6.5069
    -6.0543  -5.9240  -5.6574  -5.3500  -4.9819  -4.8821  -4.4279  -4.0223
    -3.8738  -3.7081  -3.5853  -2.4108  -2.1921  -2.1390  -1.5959  -1.4156
    -1.3700  -0.4156  -0.2035   0.3537   1.9763   2.6295   3.0643   3.1924
     4.9274   5.0236   5.4056   5.5753   5.5979   5.7203   6.0628   6.1001
     6.6243   6.8664   7.1793   7.3882   7.6932   7.9871   8.1390   8.3271
     8.7565   8.9481   9.1265   9.3338   9.5641   9.8289  10.1429  10.6508
    10.8241  10.9418  11.0317  11.3360  11.6872  11.9774  12.0775  12.2513
    12.3878  12.4630  12.6531  12.8592  13.2295  13.4903  13.6222  13.7761
    13.9528  14.0854  14.3023  14.4463  14.6774  14.8446  14.9730  15.1160
    15.1801  15.3840  15.4414  15.7749  15.8855  15.9842  16.2969  16.5866
    16.7341  16.9435  16.9644  17.1221

     the Fermi energy is     1.0486 ev

!    total energy              =    -243.80988192 Ry
     Harris-Foulkes estimate   =    -243.80981147 Ry
     estimated scf accuracy    <       0.00007410 Ry

     The total energy is the sum of the following terms:

     one-electron contribution =    -346.20774793 Ry
     hartree contribution      =     197.33387012 Ry
     xc contribution           =     -93.51434039 Ry
     ewald contribution        =      -1.42166372 Ry
     smearing contrib. (-TS)   =      -0.00000000 Ry

     convergence has been achieved in   7 iterations

     Writing output data file x0.save
 
     init_run     :      0.40s CPU      0.44s WALL (       1 calls)
     electrons    :      1.87s CPU      1.99s WALL (       1 calls)

     Called by init_run:
     wfcinit      :      0.03s CPU      0.04s WALL (       1 calls)
     potinit      :      0.08s CPU      0.08s WALL (       1 calls)

     Called by electrons:
     c_bands      :      0.96s CPU      0.97s WALL (       7 calls)
     sum_band     :      0.43s CPU      0.44s WALL (       7 calls)
     v_of_rho     :      0.22s CPU      0.23s WALL (       8 calls)
     newd         :      0.28s CPU      0.29s WALL (       8 calls)
     mix_rho      :      0.03s CPU      0.03s WALL (       7 calls)

     Called by c_bands:
     init_us_2    :      0.00s CPU      0.00s WALL (      15 calls)
     regterg      :      0.94s CPU      0.96s WALL (       7 calls)

     Called by sum_band:
     sum_band:bec :      0.00s CPU      0.00s WALL (       7 calls)
     addusdens    :      0.29s CPU      0.30s WALL (       7 calls)

     Called by *egterg:
     h_psi        :      0.44s CPU      0.45s WALL (      33 calls)
     s_psi        :      0.01s CPU      0.01s WALL (      33 calls)
     g_psi        :      0.00s CPU      0.00s WALL (      25 calls)
     rdiaghg      :      0.40s CPU      0.40s WALL (      32 calls)

     Called by h_psi:
     h_psi:pot    :      0.43s CPU      0.44s WALL (      33 calls)
     h_psi:calbec :      0.02s CPU      0.02s WALL (      33 calls)
     vloc_psi     :      0.41s CPU      0.41s WALL (      33 calls)
     add_vuspsi   :      0.01s CPU      0.01s WALL (      33 calls)

     General routines
     calbec       :      0.02s CPU      0.02s WALL (      40 calls)
     fft          :      0.23s CPU      0.24s WALL (     124 calls)
     ffts         :      0.01s CPU      0.01s WALL (      15 calls)
     fftw         :      0.43s CPU      0.44s WALL (    2190 calls)
     interpolate  :      0.04s CPU      0.04s WALL (      15 calls)
 
     Parallel routines
     fft_scatt_xy :      0.04s CPU      0.04s WALL (    2329 calls)
     fft_scatt_yz :      0.13s CPU      0.13s WALL (    2329 calls)
 
     PWSCF        :     3.90s CPU         5.19s WALL

 
   This run was terminated on:  18:54:37  22Jun2021            

=------------------------------------------------------------------------------=
   JOB DONE.
=------------------------------------------------------------------------------=
