
     Program PWSCF v.6.2 (svn rev. 14038) starts on 22Jun2021 at 18:56:36 

     This program is part of the open-source Quantum ESPRESSO suite
     for quantum simulation of materials; please cite
         "P. Giannozzi et al., J. Phys.:Condens. Matter 21 395502 (2009);
         "P. Giannozzi et al., J. Phys.:Condens. Matter 29 465901 (2017);
          URL http://www.quantum-espresso.org", 
     in publications or presentations arising from this work. More details at
     http://www.quantum-espresso.org/quote

     Parallel version (MPI), running on    12 processors

     MPI processes distributed on     1 nodes
     R & G space division:  proc/nbgrp/npool/nimage =      12
     Waiting for input...
     Reading input from standard input

     Current dimensions of program PWSCF are:
     Max number of different atomic species (ntypx) = 10
     Max number of k-points (npk) =  40000
     Max angular momentum in pseudopotentials (lmaxx) =  3
               file Ir.pbe-n-rrkjus_psl.0.2.3.UPF: wavefunction(s)  5D renormalized

     gamma-point specific algorithms are used

     Subspace diagonalization in iterative solution of the eigenvalue problem:
     a serial algorithm will be used

 
     Parallelization info
     --------------------
     sticks:   dense  smooth     PW     G-vecs:    dense   smooth      PW
     Min         353     140     34                17398     4383     546
     Max         356     144     36                17404     4390     556
     Sum        4257    1701    421               208801    52635    6619
 


     bravais-lattice index     =            0
     lattice parameter (alat)  =      13.3514  a.u.
     unit-cell volume          =    2380.0325 (a.u.)^3
     number of atoms/cell      =           25
     number of atomic types    =            4
     number of electrons       =        72.00
     number of Kohn-Sham states=          100
     kinetic-energy cutoff     =      30.0000  Ry
     charge density cutoff     =     300.0000  Ry
     convergence threshold     =      1.0E-04
     mixing beta               =       0.3000
     number of iterations used =            8  plain     mixing
     Exchange-correlation      = PBE ( 1  4  3  4 0 0)

     celldm(1)=  13.351425  celldm(2)=   0.000000  celldm(3)=   0.000000
     celldm(4)=   0.000000  celldm(5)=   0.000000  celldm(6)=   0.000000

     crystal axes: (cart. coord. in units of alat)
               a(1) = (   1.000000   0.000000   0.000000 )  
               a(2) = (   0.000000   1.000000   0.000000 )  
               a(3) = (   0.000000   0.000000   1.000000 )  

     reciprocal axes: (cart. coord. in units 2 pi/alat)
               b(1) = (  1.000000  0.000000  0.000000 )  
               b(2) = (  0.000000  1.000000  0.000000 )  
               b(3) = (  0.000000  0.000000  1.000000 )  


     PseudoPot. # 1 for C  read from file:
     /util/academic/espresso/6.2.1/pseudopotentials/upf_files/C.pbe-n-rrkjus_psl.0.1.UPF
     MD5 check sum: ab446d787031eba755f1d5ee46644bb0
     Pseudo is Ultrasoft + core correction, Zval =  4.0
     Generated using "atomic" code by A. Dal Corso v.5.0.2 svn rev. 9415
     Using radial grid of 1073 points,  4 beta functions with: 
                l(1) =   0
                l(2) =   0
                l(3) =   1
                l(4) =   1
     Q(r) pseudized with 0 coefficients 


     PseudoPot. # 2 for H  read from file:
     /util/academic/espresso/6.2.1/pseudopotentials/upf_files/H.pbe-rrkjus_psl.0.1.UPF
     MD5 check sum: bd57da0722753ddfd9833a65b40bb853
     Pseudo is Ultrasoft, Zval =  1.0
     Generated using "atomic" code by A. Dal Corso v.5.0.2 svn rev. 9415
     Using radial grid of  929 points,  2 beta functions with: 
                l(1) =   0
                l(2) =   0
     Q(r) pseudized with 0 coefficients 


     PseudoPot. # 3 for Ir read from file:
     /util/academic/espresso/6.2.1/pseudopotentials/upf_files/Ir.pbe-n-rrkjus_psl.0.2.3.UPF
     MD5 check sum: 0d5bc36db6a0bde07ee800c0d8fcbb77
     Pseudo is Ultrasoft + core correction, Zval =  9.0
     Generated using "atomic" code by A. Dal Corso v.5.0.2 svn rev. 9415
     Using radial grid of 1277 points,  6 beta functions with: 
                l(1) =   0
                l(2) =   0
                l(3) =   1
                l(4) =   1
                l(5) =   2
                l(6) =   2
     Q(r) pseudized with 0 coefficients 


     PseudoPot. # 4 for N  read from file:
     /util/academic/espresso/6.2.1/pseudopotentials/upf_files/N.pbe-n-rrkjus_psl.0.1.UPF
     MD5 check sum: ed8b6a90f28a53b7d71920e7015d2dd6
     Pseudo is Ultrasoft + core correction, Zval =  5.0
     Generated using "atomic" code by A. Dal Corso v.5.0.2 svn rev. 9415
     Using radial grid of 1085 points,  4 beta functions with: 
                l(1) =   0
                l(2) =   0
                l(3) =   1
                l(4) =   1
     Q(r) pseudized with 0 coefficients 


     atomic species   valence    mass     pseudopotential
        C              4.00    12.01000     C ( 1.00)
        H              1.00     1.00700     H ( 1.00)
        Ir             9.00   192.21700     Ir( 1.00)
        N              5.00    14.00600     N ( 1.00)

     No symmetry found



   Cartesian axes

     site n.     atom                  positions (alat units)
         1           Ir  tau(   1) = (   0.0013471   0.0037296   0.0010010  )
         2           N   tau(   2) = (   0.1399121  -0.2041553  -0.1706935  )
         3           N   tau(   3) = (  -0.2391265   0.0059226  -0.1700896  )
         4           N   tau(   4) = (   0.1174271   0.2153138  -0.1553518  )
         5           C   tau(   5) = (  -0.0816830   0.2235198   0.1516722  )
         6           C   tau(   6) = (   0.2053922  -0.0536263   0.1837698  )
         7           C   tau(   7) = (   0.2790978  -0.2721132  -0.0638098  )
         8           C   tau(   8) = (   0.3059290  -0.2011744   0.1191925  )
         9           C   tau(   9) = (  -0.1467259  -0.1774916   0.1419283  )
        10           C   tau(  10) = (   0.0770681   0.3852073  -0.1005903  )
        11           C   tau(  11) = (  -0.0074393   0.3957945   0.0903300  )
        12           C   tau(  12) = (  -0.3602254  -0.1287245  -0.1147598  )
        13           C   tau(  13) = (  -0.3061558  -0.2439377   0.0439062  )
        14           H   tau(  14) = (   0.2413280   0.0291165   0.3035945  )
        15           H   tau(  15) = (   0.4102503  -0.2739878   0.2128324  )
        16           H   tau(  16) = (   0.3523963  -0.3910495  -0.1289446  )
        17           H   tau(  17) = (   0.0954123   0.5019841  -0.1815275  )
        18           H   tau(  18) = (  -0.0388427   0.5317672   0.1528163  )
        19           H   tau(  19) = (  -0.1572315   0.2357665   0.2891514  )
        20           H   tau(  20) = (  -0.4003064  -0.3296734   0.1241293  )
        21           H   tau(  21) = (  -0.1341651  -0.2431058   0.2851226  )
        22           H   tau(  22) = (  -0.4900526  -0.1366590  -0.1950334  )
        23           H   tau(  23) = (   0.1319845  -0.2696149  -0.3050352  )
        24           H   tau(  24) = (   0.1662665   0.1871661  -0.2878963  )
        25           H   tau(  25) = (  -0.2731617   0.0740356  -0.2946889  )

     number of k points=     1  gaussian smearing, width (Ry)=  0.0100
                       cart. coord. in units 2pi/alat
        k(    1) = (   0.0000000   0.0000000   0.0000000), wk =   2.0000000

     Dense  grid:   104401 G-vectors     FFT dimensions: (  75,  75,  75)

     Smooth grid:    26318 G-vectors     FFT dimensions: (  48,  48,  48)

     Estimated max dynamical RAM per process >      46.16 MB

     Estimated total dynamical RAM >     553.92 MB

     Check: negative/imaginary core charge=   -0.000002    0.000000

     Initial potential from superposition of free atoms

     starting charge   71.99934, renormalised to   72.00000
     Starting wfc are   69 randomized atomic wfcs +   31 random wfc

     total cpu time spent up to now is        2.6 secs

     Self-consistent Calculation

     iteration #  1     ecut=    30.00 Ry     beta= 0.30
     Davidson diagonalization with overlap
     ethr =  1.00E-02,  avg # of iterations =  5.0

     total cpu time spent up to now is        3.0 secs

     total energy              =    -243.66771513 Ry
     Harris-Foulkes estimate   =    -244.90668756 Ry
     estimated scf accuracy    <       3.27844508 Ry

     iteration #  2     ecut=    30.00 Ry     beta= 0.30
     Davidson diagonalization with overlap
     ethr =  4.55E-03,  avg # of iterations =  1.0

     total cpu time spent up to now is        3.2 secs

     total energy              =    -243.74514594 Ry
     Harris-Foulkes estimate   =    -244.04125041 Ry
     estimated scf accuracy    <       0.83372171 Ry

     iteration #  3     ecut=    30.00 Ry     beta= 0.30
     Davidson diagonalization with overlap
     ethr =  1.16E-03,  avg # of iterations =  4.0

     total cpu time spent up to now is        3.4 secs

     total energy              =    -243.77554399 Ry
     Harris-Foulkes estimate   =    -243.87842181 Ry
     estimated scf accuracy    <       0.32943755 Ry

     iteration #  4     ecut=    30.00 Ry     beta= 0.30
     Davidson diagonalization with overlap
     ethr =  4.58E-04,  avg # of iterations =  2.0

     negative rho (up, down):  8.295E-08 0.000E+00

     total cpu time spent up to now is        3.7 secs

     total energy              =    -243.79713308 Ry
     Harris-Foulkes estimate   =    -243.81522569 Ry
     estimated scf accuracy    <       0.05374610 Ry

     iteration #  5     ecut=    30.00 Ry     beta= 0.30
     Davidson diagonalization with overlap
     ethr =  7.46E-05,  avg # of iterations =  6.0

     negative rho (up, down):  7.281E-08 0.000E+00

     total cpu time spent up to now is        4.0 secs

     total energy              =    -243.80641735 Ry
     Harris-Foulkes estimate   =    -243.80723472 Ry
     estimated scf accuracy    <       0.00482823 Ry

     iteration #  6     ecut=    30.00 Ry     beta= 0.30
     Davidson diagonalization with overlap
     ethr =  6.71E-06,  avg # of iterations =  2.0

     negative rho (up, down):  4.610E-08 0.000E+00

     total cpu time spent up to now is        4.2 secs

     total energy              =    -243.80663442 Ry
     Harris-Foulkes estimate   =    -243.80673990 Ry
     estimated scf accuracy    <       0.00093042 Ry

     iteration #  7     ecut=    30.00 Ry     beta= 0.30
     Davidson diagonalization with overlap
     ethr =  1.29E-06,  avg # of iterations =  1.0

     total cpu time spent up to now is        4.4 secs

     End of self-consistent calculation

          k = 0.0000 0.0000 0.0000 (  3310 PWs)   bands (ev):

   -18.4364 -18.1378 -17.6872 -14.4371 -13.8587 -13.7044 -11.6094 -10.9787
   -10.5725  -9.1041  -8.7226  -8.4439  -8.2899  -7.8987  -7.8289  -6.5234
    -6.1630  -5.8717  -5.4812  -5.2047  -5.0236  -4.6971  -4.5114  -4.1389
    -3.8939  -3.7834  -3.4995  -2.5733  -2.2117  -2.0460  -1.6828  -1.4839
    -1.2920  -0.3404  -0.2615   0.1153   1.9476   2.5411   3.0366   3.1655
     4.8028   4.9727   5.3971   5.6152   5.6506   5.6647   5.9572   6.1118
     6.5685   6.8886   7.1630   7.4063   7.7921   7.8831   8.3607   8.4807
     8.5870   9.0000   9.1623   9.2364   9.7001   9.7963   9.9529  10.7502
    10.8862  11.0362  11.2152  11.2663  11.4222  11.7946  12.0615  12.2514
    12.3431  12.4879  12.5115  12.8649  12.9834  13.3814  13.4551  13.8288
    14.0509  14.1738  14.2694  14.5162  14.6620  14.7453  14.8215  15.0804
    15.1123  15.2004  15.4792  15.7010  15.8490  15.9105  16.2975  16.5705
    16.7404  16.8424  17.0470  17.1565

     the Fermi energy is     1.0540 ev

!    total energy              =    -243.80678410 Ry
     Harris-Foulkes estimate   =    -243.80672111 Ry
     estimated scf accuracy    <       0.00008237 Ry

     The total energy is the sum of the following terms:

     one-electron contribution =    -344.41720474 Ry
     hartree contribution      =     196.35509082 Ry
     xc contribution           =     -93.40295206 Ry
     ewald contribution        =      -2.34171812 Ry
     smearing contrib. (-TS)   =      -0.00000000 Ry

     convergence has been achieved in   7 iterations

     Writing output data file x0.save
 
     init_run     :      0.36s CPU      0.68s WALL (       1 calls)
     electrons    :      1.77s CPU      1.86s WALL (       1 calls)

     Called by init_run:
     wfcinit      :      0.04s CPU      0.05s WALL (       1 calls)
     potinit      :      0.07s CPU      0.07s WALL (       1 calls)

     Called by electrons:
     c_bands      :      0.85s CPU      0.87s WALL (       7 calls)
     sum_band     :      0.43s CPU      0.44s WALL (       7 calls)
     v_of_rho     :      0.23s CPU      0.23s WALL (       8 calls)
     newd         :      0.28s CPU      0.58s WALL (       8 calls)
     mix_rho      :      0.03s CPU      0.03s WALL (       7 calls)

     Called by c_bands:
     init_us_2    :      0.00s CPU      0.00s WALL (      15 calls)
     regterg      :      0.83s CPU      0.86s WALL (       7 calls)

     Called by sum_band:
     sum_band:bec :      0.00s CPU      0.00s WALL (       7 calls)
     addusdens    :      0.28s CPU      0.29s WALL (       7 calls)

     Called by *egterg:
     h_psi        :      0.43s CPU      0.45s WALL (      29 calls)
     s_psi        :      0.01s CPU      0.01s WALL (      29 calls)
     g_psi        :      0.00s CPU      0.00s WALL (      21 calls)
     rdiaghg      :      0.33s CPU      0.34s WALL (      28 calls)

     Called by h_psi:
     h_psi:pot    :      0.43s CPU      0.45s WALL (      29 calls)
     h_psi:calbec :      0.02s CPU      0.02s WALL (      29 calls)
     vloc_psi     :      0.40s CPU      0.42s WALL (      29 calls)
     add_vuspsi   :      0.01s CPU      0.01s WALL (      29 calls)

     General routines
     calbec       :      0.02s CPU      0.03s WALL (      36 calls)
     fft          :      0.26s CPU      0.26s WALL (     124 calls)
     ffts         :      0.01s CPU      0.01s WALL (      15 calls)
     fftw         :      0.43s CPU      0.45s WALL (    2176 calls)
     interpolate  :      0.04s CPU      0.04s WALL (      15 calls)
 
     Parallel routines
     fft_scatt_xy :      0.04s CPU      0.04s WALL (    2315 calls)
     fft_scatt_yz :      0.18s CPU      0.18s WALL (    2315 calls)
 
     PWSCF        :     3.82s CPU         5.29s WALL

 
   This run was terminated on:  18:56:41  22Jun2021            

=------------------------------------------------------------------------------=
   JOB DONE.
=------------------------------------------------------------------------------=
