
     Program PWSCF v.6.2 (svn rev. 14038) starts on 22Jun2021 at 18:56:20 

     This program is part of the open-source Quantum ESPRESSO suite
     for quantum simulation of materials; please cite
         "P. Giannozzi et al., J. Phys.:Condens. Matter 21 395502 (2009);
         "P. Giannozzi et al., J. Phys.:Condens. Matter 29 465901 (2017);
          URL http://www.quantum-espresso.org", 
     in publications or presentations arising from this work. More details at
     http://www.quantum-espresso.org/quote

     Parallel version (MPI), running on    12 processors

     MPI processes distributed on     1 nodes
     R & G space division:  proc/nbgrp/npool/nimage =      12
     Waiting for input...
     Reading input from standard input

     Current dimensions of program PWSCF are:
     Max number of different atomic species (ntypx) = 10
     Max number of k-points (npk) =  40000
     Max angular momentum in pseudopotentials (lmaxx) =  3
               file Ir.pbe-n-rrkjus_psl.0.2.3.UPF: wavefunction(s)  5D renormalized

     gamma-point specific algorithms are used

     Subspace diagonalization in iterative solution of the eigenvalue problem:
     a serial algorithm will be used

 
     Parallelization info
     --------------------
     sticks:   dense  smooth     PW     G-vecs:    dense   smooth      PW
     Min         353     140     34                17398     4383     546
     Max         356     144     36                17404     4390     556
     Sum        4257    1701    421               208801    52635    6619
 


     bravais-lattice index     =            0
     lattice parameter (alat)  =      13.3514  a.u.
     unit-cell volume          =    2380.0325 (a.u.)^3
     number of atoms/cell      =           25
     number of atomic types    =            4
     number of electrons       =        72.00
     number of Kohn-Sham states=          100
     kinetic-energy cutoff     =      30.0000  Ry
     charge density cutoff     =     300.0000  Ry
     convergence threshold     =      1.0E-04
     mixing beta               =       0.3000
     number of iterations used =            8  plain     mixing
     Exchange-correlation      = PBE ( 1  4  3  4 0 0)

     celldm(1)=  13.351425  celldm(2)=   0.000000  celldm(3)=   0.000000
     celldm(4)=   0.000000  celldm(5)=   0.000000  celldm(6)=   0.000000

     crystal axes: (cart. coord. in units of alat)
               a(1) = (   1.000000   0.000000   0.000000 )  
               a(2) = (   0.000000   1.000000   0.000000 )  
               a(3) = (   0.000000   0.000000   1.000000 )  

     reciprocal axes: (cart. coord. in units 2 pi/alat)
               b(1) = (  1.000000  0.000000  0.000000 )  
               b(2) = (  0.000000  1.000000  0.000000 )  
               b(3) = (  0.000000  0.000000  1.000000 )  


     PseudoPot. # 1 for C  read from file:
     /util/academic/espresso/6.2.1/pseudopotentials/upf_files/C.pbe-n-rrkjus_psl.0.1.UPF
     MD5 check sum: ab446d787031eba755f1d5ee46644bb0
     Pseudo is Ultrasoft + core correction, Zval =  4.0
     Generated using "atomic" code by A. Dal Corso v.5.0.2 svn rev. 9415
     Using radial grid of 1073 points,  4 beta functions with: 
                l(1) =   0
                l(2) =   0
                l(3) =   1
                l(4) =   1
     Q(r) pseudized with 0 coefficients 


     PseudoPot. # 2 for H  read from file:
     /util/academic/espresso/6.2.1/pseudopotentials/upf_files/H.pbe-rrkjus_psl.0.1.UPF
     MD5 check sum: bd57da0722753ddfd9833a65b40bb853
     Pseudo is Ultrasoft, Zval =  1.0
     Generated using "atomic" code by A. Dal Corso v.5.0.2 svn rev. 9415
     Using radial grid of  929 points,  2 beta functions with: 
                l(1) =   0
                l(2) =   0
     Q(r) pseudized with 0 coefficients 


     PseudoPot. # 3 for Ir read from file:
     /util/academic/espresso/6.2.1/pseudopotentials/upf_files/Ir.pbe-n-rrkjus_psl.0.2.3.UPF
     MD5 check sum: 0d5bc36db6a0bde07ee800c0d8fcbb77
     Pseudo is Ultrasoft + core correction, Zval =  9.0
     Generated using "atomic" code by A. Dal Corso v.5.0.2 svn rev. 9415
     Using radial grid of 1277 points,  6 beta functions with: 
                l(1) =   0
                l(2) =   0
                l(3) =   1
                l(4) =   1
                l(5) =   2
                l(6) =   2
     Q(r) pseudized with 0 coefficients 


     PseudoPot. # 4 for N  read from file:
     /util/academic/espresso/6.2.1/pseudopotentials/upf_files/N.pbe-n-rrkjus_psl.0.1.UPF
     MD5 check sum: ed8b6a90f28a53b7d71920e7015d2dd6
     Pseudo is Ultrasoft + core correction, Zval =  5.0
     Generated using "atomic" code by A. Dal Corso v.5.0.2 svn rev. 9415
     Using radial grid of 1085 points,  4 beta functions with: 
                l(1) =   0
                l(2) =   0
                l(3) =   1
                l(4) =   1
     Q(r) pseudized with 0 coefficients 


     atomic species   valence    mass     pseudopotential
        C              4.00    12.01000     C ( 1.00)
        H              1.00     1.00700     H ( 1.00)
        Ir             9.00   192.21700     Ir( 1.00)
        N              5.00    14.00600     N ( 1.00)

     No symmetry found



   Cartesian axes

     site n.     atom                  positions (alat units)
         1           Ir  tau(   1) = (   0.0009596   0.0034760   0.0008090  )
         2           N   tau(   2) = (   0.1514991  -0.1965550  -0.1658882  )
         3           N   tau(   3) = (  -0.2373904   0.0052356  -0.1660505  )
         4           N   tau(   4) = (   0.1145156   0.2113273  -0.1605644  )
         5           C   tau(   5) = (  -0.0839205   0.2303588   0.1523121  )
         6           C   tau(   6) = (   0.2059803  -0.0501935   0.1819366  )
         7           C   tau(   7) = (   0.2837982  -0.2703900  -0.0639224  )
         8           C   tau(   8) = (   0.3026102  -0.2087665   0.1338028  )
         9           C   tau(   9) = (  -0.1535242  -0.1770160   0.1337723  )
        10           C   tau(  10) = (   0.0701143   0.3785213  -0.0944010  )
        11           C   tau(  11) = (  -0.0081450   0.3939338   0.0845025  )
        12           C   tau(  12) = (  -0.3564803  -0.1273759  -0.1168377  )
        13           C   tau(  13) = (  -0.3032215  -0.2389719   0.0409528  )
        14           H   tau(  14) = (   0.2617638   0.0327271   0.3026780  )
        15           H   tau(  15) = (   0.4072505  -0.2837627   0.2176767  )
        16           H   tau(  16) = (   0.3588556  -0.3923619  -0.1209277  )
        17           H   tau(  17) = (   0.0880932   0.4917115  -0.1927818  )
        18           H   tau(  18) = (  -0.0439861   0.5151026   0.1543274  )
        19           H   tau(  19) = (  -0.1365999   0.2346899   0.2897330  )
        20           H   tau(  20) = (  -0.3963337  -0.3302567   0.1160188  )
        21           H   tau(  21) = (  -0.1338533  -0.2225533   0.2806762  )
        22           H   tau(  22) = (  -0.4786650  -0.1654882  -0.2073518  )
        23           H   tau(  23) = (   0.1216822  -0.2724703  -0.2846136  )
        24           H   tau(  24) = (   0.1480221   0.2181224  -0.3018910  )
        25           H   tau(  25) = (  -0.2672288   0.0664106  -0.2986074  )

     number of k points=     1  gaussian smearing, width (Ry)=  0.0100
                       cart. coord. in units 2pi/alat
        k(    1) = (   0.0000000   0.0000000   0.0000000), wk =   2.0000000

     Dense  grid:   104401 G-vectors     FFT dimensions: (  75,  75,  75)

     Smooth grid:    26318 G-vectors     FFT dimensions: (  48,  48,  48)

     Estimated max dynamical RAM per process >      46.16 MB

     Estimated total dynamical RAM >     553.92 MB

     Check: negative/imaginary core charge=   -0.000002    0.000000

     Initial potential from superposition of free atoms

     starting charge   71.99934, renormalised to   72.00000
     Starting wfc are   69 randomized atomic wfcs +   31 random wfc

     total cpu time spent up to now is        2.5 secs

     Self-consistent Calculation

     iteration #  1     ecut=    30.00 Ry     beta= 0.30
     Davidson diagonalization with overlap
     ethr =  1.00E-02,  avg # of iterations =  5.0

     total cpu time spent up to now is        2.9 secs

     total energy              =    -243.65146101 Ry
     Harris-Foulkes estimate   =    -245.00145780 Ry
     estimated scf accuracy    <       3.53570600 Ry

     iteration #  2     ecut=    30.00 Ry     beta= 0.30
     Davidson diagonalization with overlap
     ethr =  4.91E-03,  avg # of iterations =  1.0

     total cpu time spent up to now is        3.1 secs

     total energy              =    -243.73988345 Ry
     Harris-Foulkes estimate   =    -244.05601499 Ry
     estimated scf accuracy    <       0.87749328 Ry

     iteration #  3     ecut=    30.00 Ry     beta= 0.30
     Davidson diagonalization with overlap
     ethr =  1.22E-03,  avg # of iterations =  4.0

     total cpu time spent up to now is        3.3 secs

     total energy              =    -243.77614432 Ry
     Harris-Foulkes estimate   =    -243.88204096 Ry
     estimated scf accuracy    <       0.33776893 Ry

     iteration #  4     ecut=    30.00 Ry     beta= 0.30
     Davidson diagonalization with overlap
     ethr =  4.69E-04,  avg # of iterations =  4.0

     negative rho (up, down):  1.812E-07 0.000E+00

     total cpu time spent up to now is        3.6 secs

     total energy              =    -243.79824257 Ry
     Harris-Foulkes estimate   =    -243.81731423 Ry
     estimated scf accuracy    <       0.05570041 Ry

     iteration #  5     ecut=    30.00 Ry     beta= 0.30
     Davidson diagonalization with overlap
     ethr =  7.74E-05,  avg # of iterations =  7.0

     negative rho (up, down):  1.413E-07 0.000E+00

     total cpu time spent up to now is        3.9 secs

     total energy              =    -243.80770027 Ry
     Harris-Foulkes estimate   =    -243.80849968 Ry
     estimated scf accuracy    <       0.00473750 Ry

     iteration #  6     ecut=    30.00 Ry     beta= 0.30
     Davidson diagonalization with overlap
     ethr =  6.58E-06,  avg # of iterations =  2.0

     negative rho (up, down):  6.269E-08 0.000E+00

     total cpu time spent up to now is        4.2 secs

     total energy              =    -243.80795785 Ry
     Harris-Foulkes estimate   =    -243.80807419 Ry
     estimated scf accuracy    <       0.00089475 Ry

     iteration #  7     ecut=    30.00 Ry     beta= 0.30
     Davidson diagonalization with overlap
     ethr =  1.24E-06,  avg # of iterations =  1.0

     total cpu time spent up to now is        4.4 secs

     End of self-consistent calculation

          k = 0.0000 0.0000 0.0000 (  3310 PWs)   bands (ev):

   -18.6369 -18.2853 -18.0966 -14.4307 -14.2590 -13.9468 -11.4695 -10.9308
   -10.4832  -9.2117  -8.6479  -8.4049  -8.3286  -8.0628  -7.7755  -6.5926
    -6.1481  -5.8022  -5.5958  -5.3651  -5.0426  -4.8812  -4.4197  -4.2559
    -4.0673  -3.9302  -3.6889  -2.4517  -2.1201  -2.0356  -1.6901  -1.6478
    -1.2560  -0.4498  -0.2183   0.1424   2.0477   2.6821   3.0639   3.1027
     4.7488   5.1091   5.3734   5.5963   5.7307   5.8036   6.0086   6.1408
     6.5251   6.9779   7.1836   7.5722   7.7885   7.9468   8.2452   8.3659
     8.6027   8.8153   9.1096   9.3796   9.7830   9.9196  10.0984  10.4973
    10.9256  11.0460  11.1952  11.4392  11.7353  11.8816  12.1467  12.4616
    12.5477  12.6818  12.7208  12.9537  13.1255  13.4378  13.4959  13.8483
    14.1249  14.1593  14.4232  14.4805  14.6506  14.8441  14.9644  15.0811
    15.1151  15.3470  15.4893  15.6451  15.9478  16.0794  16.3210  16.5248
    16.5818  16.9736  17.0865  17.1193

     the Fermi energy is     0.9428 ev

!    total energy              =    -243.80811199 Ry
     Harris-Foulkes estimate   =    -243.80804087 Ry
     estimated scf accuracy    <       0.00006902 Ry

     The total energy is the sum of the following terms:

     one-electron contribution =    -349.20074684 Ry
     hartree contribution      =     198.75480980 Ry
     xc contribution           =     -93.66606483 Ry
     ewald contribution        =       0.30388989 Ry
     smearing contrib. (-TS)   =      -0.00000000 Ry

     convergence has been achieved in   7 iterations

     Writing output data file x0.save
 
     init_run     :      0.34s CPU      0.56s WALL (       1 calls)
     electrons    :      1.83s CPU      1.93s WALL (       1 calls)

     Called by init_run:
     wfcinit      :      0.04s CPU      0.04s WALL (       1 calls)
     potinit      :      0.07s CPU      0.11s WALL (       1 calls)

     Called by electrons:
     c_bands      :      0.93s CPU      0.95s WALL (       7 calls)
     sum_band     :      0.41s CPU      0.42s WALL (       7 calls)
     v_of_rho     :      0.22s CPU      0.23s WALL (       8 calls)
     newd         :      0.28s CPU      0.44s WALL (       8 calls)
     mix_rho      :      0.03s CPU      0.03s WALL (       7 calls)

     Called by c_bands:
     init_us_2    :      0.00s CPU      0.00s WALL (      15 calls)
     regterg      :      0.92s CPU      0.94s WALL (       7 calls)

     Called by sum_band:
     sum_band:bec :      0.00s CPU      0.00s WALL (       7 calls)
     addusdens    :      0.28s CPU      0.28s WALL (       7 calls)

     Called by *egterg:
     h_psi        :      0.44s CPU      0.46s WALL (      32 calls)
     s_psi        :      0.01s CPU      0.01s WALL (      32 calls)
     g_psi        :      0.00s CPU      0.00s WALL (      24 calls)
     rdiaghg      :      0.38s CPU      0.38s WALL (      31 calls)

     Called by h_psi:
     h_psi:pot    :      0.44s CPU      0.45s WALL (      32 calls)
     h_psi:calbec :      0.02s CPU      0.02s WALL (      32 calls)
     vloc_psi     :      0.41s CPU      0.42s WALL (      32 calls)
     add_vuspsi   :      0.01s CPU      0.01s WALL (      32 calls)

     General routines
     calbec       :      0.02s CPU      0.03s WALL (      39 calls)
     fft          :      0.23s CPU      0.24s WALL (     124 calls)
     ffts         :      0.01s CPU      0.01s WALL (      15 calls)
     fftw         :      0.44s CPU      0.45s WALL (    2190 calls)
     interpolate  :      0.04s CPU      0.04s WALL (      15 calls)
 
     Parallel routines
     fft_scatt_xy :      0.04s CPU      0.04s WALL (    2329 calls)
     fft_scatt_yz :      0.16s CPU      0.16s WALL (    2329 calls)
 
     PWSCF        :     3.88s CPU         5.13s WALL

 
   This run was terminated on:  18:56:25  22Jun2021            

=------------------------------------------------------------------------------=
   JOB DONE.
=------------------------------------------------------------------------------=
