
     Program PWSCF v.6.2 (svn rev. 14038) starts on 22Jun2021 at 18:54:17 

     This program is part of the open-source Quantum ESPRESSO suite
     for quantum simulation of materials; please cite
         "P. Giannozzi et al., J. Phys.:Condens. Matter 21 395502 (2009);
         "P. Giannozzi et al., J. Phys.:Condens. Matter 29 465901 (2017);
          URL http://www.quantum-espresso.org", 
     in publications or presentations arising from this work. More details at
     http://www.quantum-espresso.org/quote

     Parallel version (MPI), running on    12 processors

     MPI processes distributed on     1 nodes
     R & G space division:  proc/nbgrp/npool/nimage =      12
     Waiting for input...
     Reading input from standard input

     Current dimensions of program PWSCF are:
     Max number of different atomic species (ntypx) = 10
     Max number of k-points (npk) =  40000
     Max angular momentum in pseudopotentials (lmaxx) =  3
               file Ir.pbe-n-rrkjus_psl.0.2.3.UPF: wavefunction(s)  5D renormalized

     gamma-point specific algorithms are used

     Subspace diagonalization in iterative solution of the eigenvalue problem:
     a serial algorithm will be used

 
     Parallelization info
     --------------------
     sticks:   dense  smooth     PW     G-vecs:    dense   smooth      PW
     Min         353     140     34                17398     4383     546
     Max         356     144     36                17404     4390     556
     Sum        4257    1701    421               208801    52635    6619
 


     bravais-lattice index     =            0
     lattice parameter (alat)  =      13.3514  a.u.
     unit-cell volume          =    2380.0325 (a.u.)^3
     number of atoms/cell      =           25
     number of atomic types    =            4
     number of electrons       =        72.00
     number of Kohn-Sham states=          100
     kinetic-energy cutoff     =      30.0000  Ry
     charge density cutoff     =     300.0000  Ry
     convergence threshold     =      1.0E-04
     mixing beta               =       0.3000
     number of iterations used =            8  plain     mixing
     Exchange-correlation      = PBE ( 1  4  3  4 0 0)

     celldm(1)=  13.351425  celldm(2)=   0.000000  celldm(3)=   0.000000
     celldm(4)=   0.000000  celldm(5)=   0.000000  celldm(6)=   0.000000

     crystal axes: (cart. coord. in units of alat)
               a(1) = (   1.000000   0.000000   0.000000 )  
               a(2) = (   0.000000   1.000000   0.000000 )  
               a(3) = (   0.000000   0.000000   1.000000 )  

     reciprocal axes: (cart. coord. in units 2 pi/alat)
               b(1) = (  1.000000  0.000000  0.000000 )  
               b(2) = (  0.000000  1.000000  0.000000 )  
               b(3) = (  0.000000  0.000000  1.000000 )  


     PseudoPot. # 1 for C  read from file:
     /util/academic/espresso/6.2.1/pseudopotentials/upf_files/C.pbe-n-rrkjus_psl.0.1.UPF
     MD5 check sum: ab446d787031eba755f1d5ee46644bb0
     Pseudo is Ultrasoft + core correction, Zval =  4.0
     Generated using "atomic" code by A. Dal Corso v.5.0.2 svn rev. 9415
     Using radial grid of 1073 points,  4 beta functions with: 
                l(1) =   0
                l(2) =   0
                l(3) =   1
                l(4) =   1
     Q(r) pseudized with 0 coefficients 


     PseudoPot. # 2 for H  read from file:
     /util/academic/espresso/6.2.1/pseudopotentials/upf_files/H.pbe-rrkjus_psl.0.1.UPF
     MD5 check sum: bd57da0722753ddfd9833a65b40bb853
     Pseudo is Ultrasoft, Zval =  1.0
     Generated using "atomic" code by A. Dal Corso v.5.0.2 svn rev. 9415
     Using radial grid of  929 points,  2 beta functions with: 
                l(1) =   0
                l(2) =   0
     Q(r) pseudized with 0 coefficients 


     PseudoPot. # 3 for Ir read from file:
     /util/academic/espresso/6.2.1/pseudopotentials/upf_files/Ir.pbe-n-rrkjus_psl.0.2.3.UPF
     MD5 check sum: 0d5bc36db6a0bde07ee800c0d8fcbb77
     Pseudo is Ultrasoft + core correction, Zval =  9.0
     Generated using "atomic" code by A. Dal Corso v.5.0.2 svn rev. 9415
     Using radial grid of 1277 points,  6 beta functions with: 
                l(1) =   0
                l(2) =   0
                l(3) =   1
                l(4) =   1
                l(5) =   2
                l(6) =   2
     Q(r) pseudized with 0 coefficients 


     PseudoPot. # 4 for N  read from file:
     /util/academic/espresso/6.2.1/pseudopotentials/upf_files/N.pbe-n-rrkjus_psl.0.1.UPF
     MD5 check sum: ed8b6a90f28a53b7d71920e7015d2dd6
     Pseudo is Ultrasoft + core correction, Zval =  5.0
     Generated using "atomic" code by A. Dal Corso v.5.0.2 svn rev. 9415
     Using radial grid of 1085 points,  4 beta functions with: 
                l(1) =   0
                l(2) =   0
                l(3) =   1
                l(4) =   1
     Q(r) pseudized with 0 coefficients 


     atomic species   valence    mass     pseudopotential
        C              4.00    12.01000     C ( 1.00)
        H              1.00     1.00700     H ( 1.00)
        Ir             9.00   192.21700     Ir( 1.00)
        N              5.00    14.00600     N ( 1.00)

     No symmetry found



   Cartesian axes

     site n.     atom                  positions (alat units)
         1           Ir  tau(   1) = (  -0.0010569   0.0045272   0.0017173  )
         2           N   tau(   2) = (   0.1305185  -0.2022927  -0.1734348  )
         3           N   tau(   3) = (  -0.2447134  -0.0020081  -0.1754331  )
         4           N   tau(   4) = (   0.1339328   0.2153807  -0.1536707  )
         5           C   tau(   5) = (  -0.0711427   0.2285583   0.1511579  )
         6           C   tau(   6) = (   0.2110485  -0.0519732   0.1703991  )
         7           C   tau(   7) = (   0.2675206  -0.2796420  -0.0699399  )
         8           C   tau(   8) = (   0.3192106  -0.2022729   0.1119046  )
         9           C   tau(   9) = (  -0.1467766  -0.1793460   0.1436111  )
        10           C   tau(  10) = (   0.0800107   0.3802894  -0.0974982  )
        11           C   tau(  11) = (  -0.0039330   0.3951218   0.0868411  )
        12           C   tau(  12) = (  -0.3596582  -0.1278283  -0.1056637  )
        13           C   tau(  13) = (  -0.3078730  -0.2366032   0.0584862  )
        14           H   tau(  14) = (   0.2612739   0.0132692   0.3024021  )
        15           H   tau(  15) = (   0.4198044  -0.2733580   0.1978868  )
        16           H   tau(  16) = (   0.3651472  -0.3906688  -0.1043015  )
        17           H   tau(  17) = (   0.1067018   0.4930055  -0.2041469  )
        18           H   tau(  18) = (  -0.0141543   0.5269831   0.1620155  )
        19           H   tau(  19) = (  -0.1314261   0.2111093   0.2888407  )
        20           H   tau(  20) = (  -0.3800814  -0.3681359   0.0829448  )
        21           H   tau(  21) = (  -0.0914276  -0.2381663   0.2722274  )
        22           H   tau(  22) = (  -0.4877845  -0.1520251  -0.1790947  )
        23           H   tau(  23) = (   0.1118068  -0.2713549  -0.3022226  )
        24           H   tau(  24) = (   0.2011356   0.2125981  -0.2887533  )
        25           H   tau(  25) = (  -0.2955334   0.0974165  -0.2730272  )

     number of k points=     1  gaussian smearing, width (Ry)=  0.0100
                       cart. coord. in units 2pi/alat
        k(    1) = (   0.0000000   0.0000000   0.0000000), wk =   2.0000000

     Dense  grid:   104401 G-vectors     FFT dimensions: (  75,  75,  75)

     Smooth grid:    26318 G-vectors     FFT dimensions: (  48,  48,  48)

     Estimated max dynamical RAM per process >      46.16 MB

     Estimated total dynamical RAM >     553.92 MB

     Check: negative/imaginary core charge=   -0.000002    0.000000

     Initial potential from superposition of free atoms

     starting charge   71.99934, renormalised to   72.00000
     Starting wfc are   69 randomized atomic wfcs +   31 random wfc

     total cpu time spent up to now is        2.5 secs

     Self-consistent Calculation

     iteration #  1     ecut=    30.00 Ry     beta= 0.30
     Davidson diagonalization with overlap
     ethr =  1.00E-02,  avg # of iterations =  5.0

     total cpu time spent up to now is        2.8 secs

     total energy              =    -243.67510118 Ry
     Harris-Foulkes estimate   =    -244.94626811 Ry
     estimated scf accuracy    <       3.35702055 Ry

     iteration #  2     ecut=    30.00 Ry     beta= 0.30
     Davidson diagonalization with overlap
     ethr =  4.66E-03,  avg # of iterations =  1.0

     total cpu time spent up to now is        3.1 secs

     total energy              =    -243.74888121 Ry
     Harris-Foulkes estimate   =    -244.04663641 Ry
     estimated scf accuracy    <       0.82818900 Ry

     iteration #  3     ecut=    30.00 Ry     beta= 0.30
     Davidson diagonalization with overlap
     ethr =  1.15E-03,  avg # of iterations =  5.0

     total cpu time spent up to now is        3.3 secs

     total energy              =    -243.78004630 Ry
     Harris-Foulkes estimate   =    -243.88131027 Ry
     estimated scf accuracy    <       0.32544541 Ry

     iteration #  4     ecut=    30.00 Ry     beta= 0.30
     Davidson diagonalization with overlap
     ethr =  4.52E-04,  avg # of iterations =  3.0

     negative rho (up, down):  2.365E-07 0.000E+00

     total cpu time spent up to now is        3.6 secs

     total energy              =    -243.80188409 Ry
     Harris-Foulkes estimate   =    -243.82019764 Ry
     estimated scf accuracy    <       0.05436417 Ry

     iteration #  5     ecut=    30.00 Ry     beta= 0.30
     Davidson diagonalization with overlap
     ethr =  7.55E-05,  avg # of iterations =  6.0

     negative rho (up, down):  1.750E-07 0.000E+00

     total cpu time spent up to now is        3.9 secs

     total energy              =    -243.81037000 Ry
     Harris-Foulkes estimate   =    -243.81116833 Ry
     estimated scf accuracy    <       0.00472947 Ry

     iteration #  6     ecut=    30.00 Ry     beta= 0.30
     Davidson diagonalization with overlap
     ethr =  6.57E-06,  avg # of iterations =  2.0

     negative rho (up, down):  4.635E-08 0.000E+00

     total cpu time spent up to now is        4.1 secs

     total energy              =    -243.81077855 Ry
     Harris-Foulkes estimate   =    -243.81088746 Ry
     estimated scf accuracy    <       0.00086259 Ry

     iteration #  7     ecut=    30.00 Ry     beta= 0.30
     Davidson diagonalization with overlap
     ethr =  1.20E-06,  avg # of iterations =  2.0

     total cpu time spent up to now is        4.4 secs

     End of self-consistent calculation

          k = 0.0000 0.0000 0.0000 (  3310 PWs)   bands (ev):

   -18.4266 -18.0983 -17.9227 -14.3770 -14.0924 -13.8632 -11.5990 -10.7480
   -10.5472  -9.0953  -8.6418  -8.3889  -8.2166  -8.0597  -7.6498  -6.4513
    -6.0843  -5.9572  -5.6593  -5.3543  -4.9575  -4.9019  -4.4512  -4.0252
    -3.8245  -3.6951  -3.5793  -2.4298  -2.2401  -2.1300  -1.6074  -1.3990
    -1.3586  -0.4392  -0.2200   0.3616   1.9664   2.6089   3.0587   3.1966
     4.9567   5.0275   5.3807   5.5582   5.5943   5.7181   6.0644   6.0959
     6.6502   6.8726   7.1566   7.4141   7.7289   7.9901   8.1176   8.3546
     8.7322   8.9423   9.1012   9.3389   9.5653   9.8382  10.0714  10.6856
    10.8210  10.9442  11.0442  11.3009  11.6736  11.9584  12.0366  12.2703
    12.3863  12.4802  12.6133  12.8370  13.2435  13.4642  13.5546  13.7734
    13.9223  14.0573  14.2864  14.4214  14.7018  14.8535  14.9612  15.1239
    15.2340  15.3816  15.4766  15.7725  15.8973  15.9519  16.2836  16.6002
    16.7248  16.9467  16.9493  17.0961

     the Fermi energy is     1.0254 ev

!    total energy              =    -243.81091867 Ry
     Harris-Foulkes estimate   =    -243.81085043 Ry
     estimated scf accuracy    <       0.00008507 Ry

     The total energy is the sum of the following terms:

     one-electron contribution =    -346.23047004 Ry
     hartree contribution      =     197.33639723 Ry
     xc contribution           =     -93.49662603 Ry
     ewald contribution        =      -1.42021984 Ry
     smearing contrib. (-TS)   =      -0.00000000 Ry

     convergence has been achieved in   7 iterations

     Writing output data file x0.save
 
     init_run     :      0.40s CPU      0.44s WALL (       1 calls)
     electrons    :      1.85s CPU      1.95s WALL (       1 calls)

     Called by init_run:
     wfcinit      :      0.03s CPU      0.04s WALL (       1 calls)
     potinit      :      0.08s CPU      0.08s WALL (       1 calls)

     Called by electrons:
     c_bands      :      0.92s CPU      0.94s WALL (       7 calls)
     sum_band     :      0.43s CPU      0.44s WALL (       7 calls)
     v_of_rho     :      0.23s CPU      0.23s WALL (       8 calls)
     newd         :      0.28s CPU      0.30s WALL (       8 calls)
     mix_rho      :      0.03s CPU      0.03s WALL (       7 calls)

     Called by c_bands:
     init_us_2    :      0.00s CPU      0.00s WALL (      15 calls)
     regterg      :      0.91s CPU      0.93s WALL (       7 calls)

     Called by sum_band:
     sum_band:bec :      0.00s CPU      0.00s WALL (       7 calls)
     addusdens    :      0.30s CPU      0.31s WALL (       7 calls)

     Called by *egterg:
     h_psi        :      0.43s CPU      0.44s WALL (      32 calls)
     s_psi        :      0.01s CPU      0.01s WALL (      32 calls)
     g_psi        :      0.00s CPU      0.00s WALL (      24 calls)
     rdiaghg      :      0.38s CPU      0.38s WALL (      31 calls)

     Called by h_psi:
     h_psi:pot    :      0.42s CPU      0.44s WALL (      32 calls)
     h_psi:calbec :      0.02s CPU      0.02s WALL (      32 calls)
     vloc_psi     :      0.39s CPU      0.41s WALL (      32 calls)
     add_vuspsi   :      0.01s CPU      0.01s WALL (      32 calls)

     General routines
     calbec       :      0.02s CPU      0.02s WALL (      39 calls)
     fft          :      0.24s CPU      0.24s WALL (     124 calls)
     ffts         :      0.01s CPU      0.01s WALL (      15 calls)
     fftw         :      0.42s CPU      0.44s WALL (    2196 calls)
     interpolate  :      0.04s CPU      0.04s WALL (      15 calls)
 
     Parallel routines
     fft_scatt_xy :      0.04s CPU      0.04s WALL (    2335 calls)
     fft_scatt_yz :      0.13s CPU      0.14s WALL (    2335 calls)
 
     PWSCF        :     3.79s CPU         5.12s WALL

 
   This run was terminated on:  18:54:22  22Jun2021            

=------------------------------------------------------------------------------=
   JOB DONE.
=------------------------------------------------------------------------------=
