
     Program PWSCF v.6.2 (svn rev. 14038) starts on 22Jun2021 at 18:54: 1 

     This program is part of the open-source Quantum ESPRESSO suite
     for quantum simulation of materials; please cite
         "P. Giannozzi et al., J. Phys.:Condens. Matter 21 395502 (2009);
         "P. Giannozzi et al., J. Phys.:Condens. Matter 29 465901 (2017);
          URL http://www.quantum-espresso.org", 
     in publications or presentations arising from this work. More details at
     http://www.quantum-espresso.org/quote

     Parallel version (MPI), running on    12 processors

     MPI processes distributed on     1 nodes
     R & G space division:  proc/nbgrp/npool/nimage =      12
     Waiting for input...
     Reading input from standard input

     Current dimensions of program PWSCF are:
     Max number of different atomic species (ntypx) = 10
     Max number of k-points (npk) =  40000
     Max angular momentum in pseudopotentials (lmaxx) =  3
               file Ir.pbe-n-rrkjus_psl.0.2.3.UPF: wavefunction(s)  5D renormalized

     gamma-point specific algorithms are used

     Subspace diagonalization in iterative solution of the eigenvalue problem:
     a serial algorithm will be used

 
     Parallelization info
     --------------------
     sticks:   dense  smooth     PW     G-vecs:    dense   smooth      PW
     Min         353     140     34                17398     4383     546
     Max         356     144     36                17404     4390     556
     Sum        4257    1701    421               208801    52635    6619
 


     bravais-lattice index     =            0
     lattice parameter (alat)  =      13.3514  a.u.
     unit-cell volume          =    2380.0325 (a.u.)^3
     number of atoms/cell      =           25
     number of atomic types    =            4
     number of electrons       =        72.00
     number of Kohn-Sham states=          100
     kinetic-energy cutoff     =      30.0000  Ry
     charge density cutoff     =     300.0000  Ry
     convergence threshold     =      1.0E-04
     mixing beta               =       0.3000
     number of iterations used =            8  plain     mixing
     Exchange-correlation      = PBE ( 1  4  3  4 0 0)

     celldm(1)=  13.351425  celldm(2)=   0.000000  celldm(3)=   0.000000
     celldm(4)=   0.000000  celldm(5)=   0.000000  celldm(6)=   0.000000

     crystal axes: (cart. coord. in units of alat)
               a(1) = (   1.000000   0.000000   0.000000 )  
               a(2) = (   0.000000   1.000000   0.000000 )  
               a(3) = (   0.000000   0.000000   1.000000 )  

     reciprocal axes: (cart. coord. in units 2 pi/alat)
               b(1) = (  1.000000  0.000000  0.000000 )  
               b(2) = (  0.000000  1.000000  0.000000 )  
               b(3) = (  0.000000  0.000000  1.000000 )  


     PseudoPot. # 1 for C  read from file:
     /util/academic/espresso/6.2.1/pseudopotentials/upf_files/C.pbe-n-rrkjus_psl.0.1.UPF
     MD5 check sum: ab446d787031eba755f1d5ee46644bb0
     Pseudo is Ultrasoft + core correction, Zval =  4.0
     Generated using "atomic" code by A. Dal Corso v.5.0.2 svn rev. 9415
     Using radial grid of 1073 points,  4 beta functions with: 
                l(1) =   0
                l(2) =   0
                l(3) =   1
                l(4) =   1
     Q(r) pseudized with 0 coefficients 


     PseudoPot. # 2 for H  read from file:
     /util/academic/espresso/6.2.1/pseudopotentials/upf_files/H.pbe-rrkjus_psl.0.1.UPF
     MD5 check sum: bd57da0722753ddfd9833a65b40bb853
     Pseudo is Ultrasoft, Zval =  1.0
     Generated using "atomic" code by A. Dal Corso v.5.0.2 svn rev. 9415
     Using radial grid of  929 points,  2 beta functions with: 
                l(1) =   0
                l(2) =   0
     Q(r) pseudized with 0 coefficients 


     PseudoPot. # 3 for Ir read from file:
     /util/academic/espresso/6.2.1/pseudopotentials/upf_files/Ir.pbe-n-rrkjus_psl.0.2.3.UPF
     MD5 check sum: 0d5bc36db6a0bde07ee800c0d8fcbb77
     Pseudo is Ultrasoft + core correction, Zval =  9.0
     Generated using "atomic" code by A. Dal Corso v.5.0.2 svn rev. 9415
     Using radial grid of 1277 points,  6 beta functions with: 
                l(1) =   0
                l(2) =   0
                l(3) =   1
                l(4) =   1
                l(5) =   2
                l(6) =   2
     Q(r) pseudized with 0 coefficients 


     PseudoPot. # 4 for N  read from file:
     /util/academic/espresso/6.2.1/pseudopotentials/upf_files/N.pbe-n-rrkjus_psl.0.1.UPF
     MD5 check sum: ed8b6a90f28a53b7d71920e7015d2dd6
     Pseudo is Ultrasoft + core correction, Zval =  5.0
     Generated using "atomic" code by A. Dal Corso v.5.0.2 svn rev. 9415
     Using radial grid of 1085 points,  4 beta functions with: 
                l(1) =   0
                l(2) =   0
                l(3) =   1
                l(4) =   1
     Q(r) pseudized with 0 coefficients 


     atomic species   valence    mass     pseudopotential
        C              4.00    12.01000     C ( 1.00)
        H              1.00     1.00700     H ( 1.00)
        Ir             9.00   192.21700     Ir( 1.00)
        N              5.00    14.00600     N ( 1.00)

     No symmetry found



   Cartesian axes

     site n.     atom                  positions (alat units)
         1           Ir  tau(   1) = (  -0.0004704   0.0030481  -0.0003497  )
         2           N   tau(   2) = (   0.1312016  -0.2202019  -0.1645557  )
         3           N   tau(   3) = (  -0.2508959  -0.0052536  -0.1557258  )
         4           N   tau(   4) = (   0.1415504   0.2185540  -0.1623175  )
         5           C   tau(   5) = (  -0.0690886   0.2244987   0.1477479  )
         6           C   tau(   6) = (   0.2158829  -0.0430360   0.1566126  )
         7           C   tau(   7) = (   0.2811070  -0.2796795  -0.0766300  )
         8           C   tau(   8) = (   0.3257429  -0.1920608   0.0966118  )
         9           C   tau(   9) = (  -0.1523004  -0.1650157   0.1551477  )
        10           C   tau(  10) = (   0.0866491   0.3797811  -0.0882390  )
        11           C   tau(  11) = (  -0.0108638   0.3950111   0.0909917  )
        12           C   tau(  12) = (  -0.3730757  -0.1229684  -0.0983447  )
        13           C   tau(  13) = (  -0.3228984  -0.2266832   0.0785402  )
        14           H   tau(  14) = (   0.2530842   0.0261410   0.2955929  )
        15           H   tau(  15) = (   0.4378429  -0.2451287   0.1903104  )
        16           H   tau(  16) = (   0.3599349  -0.4092456  -0.1326796  )
        17           H   tau(  17) = (   0.1058289   0.4991907  -0.1748093  )
        18           H   tau(  18) = (  -0.0178913   0.5291967   0.1678182  )
        19           H   tau(  19) = (  -0.1533082   0.2142693   0.2806338  )
        20           H   tau(  20) = (  -0.3402466  -0.3757436   0.0377778  )
        21           H   tau(  21) = (  -0.1102726  -0.2330706   0.2947915  )
        22           H   tau(  22) = (  -0.4968152  -0.1434256  -0.1871434  )
        23           H   tau(  23) = (   0.0985348  -0.2986152  -0.2805909  )
        24           H   tau(  24) = (   0.1727340   0.2227537  -0.3074781  )
        25           H   tau(  25) = (  -0.2988814   0.0874559  -0.2689533  )

     number of k points=     1  gaussian smearing, width (Ry)=  0.0100
                       cart. coord. in units 2pi/alat
        k(    1) = (   0.0000000   0.0000000   0.0000000), wk =   2.0000000

     Dense  grid:   104401 G-vectors     FFT dimensions: (  75,  75,  75)

     Smooth grid:    26318 G-vectors     FFT dimensions: (  48,  48,  48)

     Estimated max dynamical RAM per process >      46.16 MB

     Estimated total dynamical RAM >     553.92 MB

     Check: negative/imaginary core charge=   -0.000002    0.000000

     Initial potential from superposition of free atoms

     starting charge   71.99934, renormalised to   72.00000
     Starting wfc are   69 randomized atomic wfcs +   31 random wfc

     total cpu time spent up to now is        2.6 secs

     Self-consistent Calculation

     iteration #  1     ecut=    30.00 Ry     beta= 0.30
     Davidson diagonalization with overlap
     ethr =  1.00E-02,  avg # of iterations =  5.0

     total cpu time spent up to now is        3.0 secs

     total energy              =    -243.55926286 Ry
     Harris-Foulkes estimate   =    -244.82768509 Ry
     estimated scf accuracy    <       3.33066480 Ry

     iteration #  2     ecut=    30.00 Ry     beta= 0.30
     Davidson diagonalization with overlap
     ethr =  4.63E-03,  avg # of iterations =  1.0

     total cpu time spent up to now is        3.2 secs

     total energy              =    -243.65853124 Ry
     Harris-Foulkes estimate   =    -243.94677614 Ry
     estimated scf accuracy    <       0.81177637 Ry

     iteration #  3     ecut=    30.00 Ry     beta= 0.30
     Davidson diagonalization with overlap
     ethr =  1.13E-03,  avg # of iterations =  4.0

     total cpu time spent up to now is        3.5 secs

     total energy              =    -243.69352572 Ry
     Harris-Foulkes estimate   =    -243.78980236 Ry
     estimated scf accuracy    <       0.31341683 Ry

     iteration #  4     ecut=    30.00 Ry     beta= 0.30
     Davidson diagonalization with overlap
     ethr =  4.35E-04,  avg # of iterations =  2.0

     negative rho (up, down):  5.925E-08 0.000E+00

     total cpu time spent up to now is        3.7 secs

     total energy              =    -243.71258787 Ry
     Harris-Foulkes estimate   =    -243.73052020 Ry
     estimated scf accuracy    <       0.05386110 Ry

     iteration #  5     ecut=    30.00 Ry     beta= 0.30
     Davidson diagonalization with overlap
     ethr =  7.48E-05,  avg # of iterations =  5.0

     negative rho (up, down):  1.541E-08 0.000E+00

     total cpu time spent up to now is        4.0 secs

     total energy              =    -243.72073120 Ry
     Harris-Foulkes estimate   =    -243.72148121 Ry
     estimated scf accuracy    <       0.00455334 Ry

     iteration #  6     ecut=    30.00 Ry     beta= 0.30
     Davidson diagonalization with overlap
     ethr =  6.32E-06,  avg # of iterations =  2.0

     total cpu time spent up to now is        4.2 secs

     total energy              =    -243.72124795 Ry
     Harris-Foulkes estimate   =    -243.72134225 Ry
     estimated scf accuracy    <       0.00081574 Ry

     iteration #  7     ecut=    30.00 Ry     beta= 0.30
     Davidson diagonalization with overlap
     ethr =  1.13E-06,  avg # of iterations =  1.0

     total cpu time spent up to now is        4.4 secs

     End of self-consistent calculation

          k = 0.0000 0.0000 0.0000 (  3310 PWs)   bands (ev):

   -18.6706 -18.3378 -18.0518 -14.3252 -14.2385 -13.5826 -11.4710 -10.8909
   -10.3099  -9.0265  -8.4852  -8.3885  -8.2911  -7.8320  -7.6751  -6.4428
    -6.1830  -5.7777  -5.5973  -5.1473  -5.0164  -4.6071  -4.3164  -4.1780
    -4.0963  -3.5934  -3.4633  -2.5103  -2.3959  -2.2976  -1.6150  -1.4176
    -1.2657  -0.4184  -0.2790   0.6967   1.9449   2.6135   3.0126   3.2076
     4.3686   5.1329   5.2076   5.5023   5.6369   5.7303   5.9064   5.9444
     6.6662   6.9380   7.0752   7.4683   7.7318   8.0069   8.1727   8.3906
     8.6722   8.9798   9.0805   9.3089   9.4779   9.5567   9.8595  10.3611
    10.6100  10.8619  11.0532  11.2191  11.5658  11.9033  11.9837  12.2081
    12.2825  12.5236  12.7566  12.9763  13.1503  13.3549  13.5675  13.7218
    13.7745  14.0893  14.3150  14.6075  14.6905  14.8610  14.9711  15.1799
    15.2111  15.3706  15.4465  15.6739  15.8816  15.9176  16.4000  16.5321
    16.7801  16.8072  17.0185  17.2032

     the Fermi energy is     1.3202 ev

!    total energy              =    -243.72138516 Ry
     Harris-Foulkes estimate   =    -243.72131487 Ry
     estimated scf accuracy    <       0.00009437 Ry

     The total energy is the sum of the following terms:

     one-electron contribution =    -347.15671399 Ry
     hartree contribution      =     197.78789821 Ry
     xc contribution           =     -93.39265169 Ry
     ewald contribution        =      -0.95991770 Ry
     smearing contrib. (-TS)   =      -0.00000000 Ry

     convergence has been achieved in   7 iterations

     Writing output data file x0.save
 
     init_run     :      0.39s CPU      0.44s WALL (       1 calls)
     electrons    :      1.77s CPU      1.87s WALL (       1 calls)

     Called by init_run:
     wfcinit      :      0.03s CPU      0.04s WALL (       1 calls)
     potinit      :      0.08s CPU      0.08s WALL (       1 calls)

     Called by electrons:
     c_bands      :      0.87s CPU      0.89s WALL (       7 calls)
     sum_band     :      0.41s CPU      0.43s WALL (       7 calls)
     v_of_rho     :      0.22s CPU      0.23s WALL (       8 calls)
     newd         :      0.28s CPU      0.29s WALL (       8 calls)
     mix_rho      :      0.03s CPU      0.03s WALL (       7 calls)

     Called by c_bands:
     init_us_2    :      0.00s CPU      0.00s WALL (      15 calls)
     regterg      :      0.86s CPU      0.87s WALL (       7 calls)

     Called by sum_band:
     sum_band:bec :      0.00s CPU      0.00s WALL (       7 calls)
     addusdens    :      0.28s CPU      0.29s WALL (       7 calls)

     Called by *egterg:
     h_psi        :      0.44s CPU      0.45s WALL (      28 calls)
     s_psi        :      0.01s CPU      0.01s WALL (      28 calls)
     g_psi        :      0.00s CPU      0.00s WALL (      20 calls)
     rdiaghg      :      0.32s CPU      0.32s WALL (      27 calls)

     Called by h_psi:
     h_psi:pot    :      0.44s CPU      0.45s WALL (      28 calls)
     h_psi:calbec :      0.02s CPU      0.02s WALL (      28 calls)
     vloc_psi     :      0.41s CPU      0.42s WALL (      28 calls)
     add_vuspsi   :      0.01s CPU      0.01s WALL (      28 calls)

     General routines
     calbec       :      0.02s CPU      0.02s WALL (      35 calls)
     fft          :      0.23s CPU      0.23s WALL (     124 calls)
     ffts         :      0.01s CPU      0.01s WALL (      15 calls)
     fftw         :      0.43s CPU      0.45s WALL (    2194 calls)
     interpolate  :      0.04s CPU      0.04s WALL (      15 calls)
 
     Parallel routines
     fft_scatt_xy :      0.04s CPU      0.04s WALL (    2333 calls)
     fft_scatt_yz :      0.14s CPU      0.15s WALL (    2333 calls)
 
     PWSCF        :     3.67s CPU         5.13s WALL

 
   This run was terminated on:  18:54: 6  22Jun2021            

=------------------------------------------------------------------------------=
   JOB DONE.
=------------------------------------------------------------------------------=
