
     Program PWSCF v.6.2 (svn rev. 14038) starts on 22Jun2021 at 18:57: 7 

     This program is part of the open-source Quantum ESPRESSO suite
     for quantum simulation of materials; please cite
         "P. Giannozzi et al., J. Phys.:Condens. Matter 21 395502 (2009);
         "P. Giannozzi et al., J. Phys.:Condens. Matter 29 465901 (2017);
          URL http://www.quantum-espresso.org", 
     in publications or presentations arising from this work. More details at
     http://www.quantum-espresso.org/quote

     Parallel version (MPI), running on    12 processors

     MPI processes distributed on     1 nodes
     R & G space division:  proc/nbgrp/npool/nimage =      12
     Waiting for input...
     Reading input from standard input

     Current dimensions of program PWSCF are:
     Max number of different atomic species (ntypx) = 10
     Max number of k-points (npk) =  40000
     Max angular momentum in pseudopotentials (lmaxx) =  3
               file Ir.pbe-n-rrkjus_psl.0.2.3.UPF: wavefunction(s)  5D renormalized

     gamma-point specific algorithms are used

     Subspace diagonalization in iterative solution of the eigenvalue problem:
     a serial algorithm will be used

 
     Parallelization info
     --------------------
     sticks:   dense  smooth     PW     G-vecs:    dense   smooth      PW
     Min         353     140     34                17398     4383     546
     Max         356     144     36                17404     4390     556
     Sum        4257    1701    421               208801    52635    6619
 


     bravais-lattice index     =            0
     lattice parameter (alat)  =      13.3514  a.u.
     unit-cell volume          =    2380.0325 (a.u.)^3
     number of atoms/cell      =           25
     number of atomic types    =            4
     number of electrons       =        72.00
     number of Kohn-Sham states=          100
     kinetic-energy cutoff     =      30.0000  Ry
     charge density cutoff     =     300.0000  Ry
     convergence threshold     =      1.0E-04
     mixing beta               =       0.3000
     number of iterations used =            8  plain     mixing
     Exchange-correlation      = PBE ( 1  4  3  4 0 0)

     celldm(1)=  13.351425  celldm(2)=   0.000000  celldm(3)=   0.000000
     celldm(4)=   0.000000  celldm(5)=   0.000000  celldm(6)=   0.000000

     crystal axes: (cart. coord. in units of alat)
               a(1) = (   1.000000   0.000000   0.000000 )  
               a(2) = (   0.000000   1.000000   0.000000 )  
               a(3) = (   0.000000   0.000000   1.000000 )  

     reciprocal axes: (cart. coord. in units 2 pi/alat)
               b(1) = (  1.000000  0.000000  0.000000 )  
               b(2) = (  0.000000  1.000000  0.000000 )  
               b(3) = (  0.000000  0.000000  1.000000 )  


     PseudoPot. # 1 for C  read from file:
     /util/academic/espresso/6.2.1/pseudopotentials/upf_files/C.pbe-n-rrkjus_psl.0.1.UPF
     MD5 check sum: ab446d787031eba755f1d5ee46644bb0
     Pseudo is Ultrasoft + core correction, Zval =  4.0
     Generated using "atomic" code by A. Dal Corso v.5.0.2 svn rev. 9415
     Using radial grid of 1073 points,  4 beta functions with: 
                l(1) =   0
                l(2) =   0
                l(3) =   1
                l(4) =   1
     Q(r) pseudized with 0 coefficients 


     PseudoPot. # 2 for H  read from file:
     /util/academic/espresso/6.2.1/pseudopotentials/upf_files/H.pbe-rrkjus_psl.0.1.UPF
     MD5 check sum: bd57da0722753ddfd9833a65b40bb853
     Pseudo is Ultrasoft, Zval =  1.0
     Generated using "atomic" code by A. Dal Corso v.5.0.2 svn rev. 9415
     Using radial grid of  929 points,  2 beta functions with: 
                l(1) =   0
                l(2) =   0
     Q(r) pseudized with 0 coefficients 


     PseudoPot. # 3 for Ir read from file:
     /util/academic/espresso/6.2.1/pseudopotentials/upf_files/Ir.pbe-n-rrkjus_psl.0.2.3.UPF
     MD5 check sum: 0d5bc36db6a0bde07ee800c0d8fcbb77
     Pseudo is Ultrasoft + core correction, Zval =  9.0
     Generated using "atomic" code by A. Dal Corso v.5.0.2 svn rev. 9415
     Using radial grid of 1277 points,  6 beta functions with: 
                l(1) =   0
                l(2) =   0
                l(3) =   1
                l(4) =   1
                l(5) =   2
                l(6) =   2
     Q(r) pseudized with 0 coefficients 


     PseudoPot. # 4 for N  read from file:
     /util/academic/espresso/6.2.1/pseudopotentials/upf_files/N.pbe-n-rrkjus_psl.0.1.UPF
     MD5 check sum: ed8b6a90f28a53b7d71920e7015d2dd6
     Pseudo is Ultrasoft + core correction, Zval =  5.0
     Generated using "atomic" code by A. Dal Corso v.5.0.2 svn rev. 9415
     Using radial grid of 1085 points,  4 beta functions with: 
                l(1) =   0
                l(2) =   0
                l(3) =   1
                l(4) =   1
     Q(r) pseudized with 0 coefficients 


     atomic species   valence    mass     pseudopotential
        C              4.00    12.01000     C ( 1.00)
        H              1.00     1.00700     H ( 1.00)
        Ir             9.00   192.21700     Ir( 1.00)
        N              5.00    14.00600     N ( 1.00)

     No symmetry found



   Cartesian axes

     site n.     atom                  positions (alat units)
         1           Ir  tau(   1) = (  -0.0000889   0.0057496   0.0028862  )
         2           N   tau(   2) = (   0.1612789  -0.1899731  -0.1607435  )
         3           N   tau(   3) = (  -0.2374039   0.0047653  -0.1743187  )
         4           N   tau(   4) = (   0.1051020   0.2159121  -0.1711720  )
         5           C   tau(   5) = (  -0.0840356   0.2236181   0.1491398  )
         6           C   tau(   6) = (   0.2188689  -0.0541392   0.1785299  )
         7           C   tau(   7) = (   0.2812531  -0.2842472  -0.0480021  )
         8           C   tau(   8) = (   0.3184691  -0.2126858   0.1420704  )
         9           C   tau(   9) = (  -0.1577477  -0.1867017   0.1303637  )
        10           C   tau(  10) = (   0.0710065   0.3775714  -0.0996575  )
        11           C   tau(  11) = (  -0.0070436   0.3925157   0.0828294  )
        12           C   tau(  12) = (  -0.3557696  -0.1380328  -0.1348110  )
        13           C   tau(  13) = (  -0.3173719  -0.2345095   0.0405791  )
        14           H   tau(  14) = (   0.2390360   0.0217740   0.3075079  )
        15           H   tau(  15) = (   0.4223863  -0.2894481   0.2283586  )
        16           H   tau(  16) = (   0.3623988  -0.4042555  -0.1101264  )
        17           H   tau(  17) = (   0.0896011   0.5187511  -0.1760679  )
        18           H   tau(  18) = (  -0.0093863   0.5230572   0.1663678  )
        19           H   tau(  19) = (  -0.1788973   0.2233790   0.2775091  )
        20           H   tau(  20) = (  -0.3903812  -0.3633359   0.0751810  )
        21           H   tau(  21) = (  -0.1188708  -0.2722704   0.2629969  )
        22           H   tau(  22) = (  -0.4761576  -0.1656834  -0.2314335  )
        23           H   tau(  23) = (   0.1733294  -0.2024216  -0.3075504  )
        24           H   tau(  24) = (   0.1451285   0.2011015  -0.3051394  )
        25           H   tau(  25) = (  -0.2581932   0.0755704  -0.3060922  )

     number of k points=     1  gaussian smearing, width (Ry)=  0.0100
                       cart. coord. in units 2pi/alat
        k(    1) = (   0.0000000   0.0000000   0.0000000), wk =   2.0000000

     Dense  grid:   104401 G-vectors     FFT dimensions: (  75,  75,  75)

     Smooth grid:    26318 G-vectors     FFT dimensions: (  48,  48,  48)

     Estimated max dynamical RAM per process >      46.16 MB

     Estimated total dynamical RAM >     553.92 MB

     Check: negative/imaginary core charge=   -0.000002    0.000000

     Initial potential from superposition of free atoms

     starting charge   71.99934, renormalised to   72.00000
     Starting wfc are   69 randomized atomic wfcs +   31 random wfc

     total cpu time spent up to now is        2.5 secs

     Self-consistent Calculation

     iteration #  1     ecut=    30.00 Ry     beta= 0.30
     Davidson diagonalization with overlap
     ethr =  1.00E-02,  avg # of iterations =  5.0

     total cpu time spent up to now is        2.8 secs

     total energy              =    -243.66191828 Ry
     Harris-Foulkes estimate   =    -244.94242618 Ry
     estimated scf accuracy    <       3.34769770 Ry

     iteration #  2     ecut=    30.00 Ry     beta= 0.30
     Davidson diagonalization with overlap
     ethr =  4.65E-03,  avg # of iterations =  1.0

     total cpu time spent up to now is        3.1 secs

     total energy              =    -243.77372505 Ry
     Harris-Foulkes estimate   =    -244.07256670 Ry
     estimated scf accuracy    <       0.85133968 Ry

     iteration #  3     ecut=    30.00 Ry     beta= 0.30
     Davidson diagonalization with overlap
     ethr =  1.18E-03,  avg # of iterations =  4.0

     total cpu time spent up to now is        3.3 secs

     total energy              =    -243.81025567 Ry
     Harris-Foulkes estimate   =    -243.91368238 Ry
     estimated scf accuracy    <       0.33489074 Ry

     iteration #  4     ecut=    30.00 Ry     beta= 0.30
     Davidson diagonalization with overlap
     ethr =  4.65E-04,  avg # of iterations =  5.0

     negative rho (up, down):  9.897E-08 0.000E+00

     total cpu time spent up to now is        3.6 secs

     total energy              =    -243.83272554 Ry
     Harris-Foulkes estimate   =    -243.85126866 Ry
     estimated scf accuracy    <       0.05569434 Ry

     iteration #  5     ecut=    30.00 Ry     beta= 0.30
     Davidson diagonalization with overlap
     ethr =  7.74E-05,  avg # of iterations =  7.0

     negative rho (up, down):  1.910E-07 0.000E+00

     total cpu time spent up to now is        3.9 secs

     total energy              =    -243.84106910 Ry
     Harris-Foulkes estimate   =    -243.84201009 Ry
     estimated scf accuracy    <       0.00525261 Ry

     iteration #  6     ecut=    30.00 Ry     beta= 0.30
     Davidson diagonalization with overlap
     ethr =  7.30E-06,  avg # of iterations =  5.0

     negative rho (up, down):  9.049E-08 0.000E+00

     total cpu time spent up to now is        4.2 secs

     total energy              =    -243.84149182 Ry
     Harris-Foulkes estimate   =    -243.84159499 Ry
     estimated scf accuracy    <       0.00086581 Ry

     iteration #  7     ecut=    30.00 Ry     beta= 0.30
     Davidson diagonalization with overlap
     ethr =  1.20E-06,  avg # of iterations =  6.0

     total cpu time spent up to now is        4.5 secs

     End of self-consistent calculation

          k = 0.0000 0.0000 0.0000 (  3310 PWs)   bands (ev):

   -18.4803 -17.9576 -17.6879 -14.3090 -14.0196 -13.8620 -11.4260 -10.7314
   -10.5086  -9.0488  -8.8091  -8.2538  -8.0628  -7.8906  -7.5691  -6.4423
    -6.1343  -5.6966  -5.5481  -5.1361  -5.0474  -4.7895  -4.2621  -4.1605
    -3.8645  -3.6646  -3.4105  -2.3946  -2.2742  -2.0480  -1.7329  -1.5471
    -1.1896  -0.4424  -0.2424   0.2414   2.0864   2.5534   3.0819   3.1644
     4.6062   4.9841   5.3361   5.5496   5.5847   5.8302   6.0688   6.1957
     6.5785   6.7324   6.9505   7.3988   7.7184   7.7409   8.1996   8.3238
     8.5401   8.6316   9.1440   9.3039   9.6133   9.8053  10.0966  10.5914
    10.7833  11.0338  11.0589  11.2007  11.5382  11.6472  12.0392  12.1909
    12.3720  12.5091  12.7340  12.8140  12.9976  13.1264  13.4343  13.6461
    13.8936  14.1381  14.2609  14.3805  14.4989  14.6202  14.6359  14.9184
    15.0618  15.2944  15.4941  15.8463  15.8919  16.0416  16.2425  16.3747
    16.6073  16.8117  16.9753  17.0941

     the Fermi energy is     0.9999 ev

!    total energy              =    -243.84162846 Ry
     Harris-Foulkes estimate   =    -243.84156983 Ry
     estimated scf accuracy    <       0.00009014 Ry

     The total energy is the sum of the following terms:

     one-electron contribution =    -336.79113918 Ry
     hartree contribution      =     192.56768527 Ry
     xc contribution           =     -93.22912094 Ry
     ewald contribution        =      -6.38905360 Ry
     smearing contrib. (-TS)   =      -0.00000000 Ry

     convergence has been achieved in   7 iterations

     Writing output data file x0.save
 
     init_run     :      0.36s CPU      0.40s WALL (       1 calls)
     electrons    :      1.95s CPU      2.06s WALL (       1 calls)

     Called by init_run:
     wfcinit      :      0.03s CPU      0.04s WALL (       1 calls)
     potinit      :      0.07s CPU      0.07s WALL (       1 calls)

     Called by electrons:
     c_bands      :      1.04s CPU      1.06s WALL (       7 calls)
     sum_band     :      0.43s CPU      0.44s WALL (       7 calls)
     v_of_rho     :      0.22s CPU      0.22s WALL (       8 calls)
     newd         :      0.27s CPU      0.29s WALL (       8 calls)
     mix_rho      :      0.03s CPU      0.03s WALL (       7 calls)

     Called by c_bands:
     init_us_2    :      0.00s CPU      0.01s WALL (      15 calls)
     regterg      :      1.03s CPU      1.05s WALL (       7 calls)

     Called by sum_band:
     sum_band:bec :      0.00s CPU      0.00s WALL (       7 calls)
     addusdens    :      0.29s CPU      0.30s WALL (       7 calls)

     Called by *egterg:
     h_psi        :      0.42s CPU      0.43s WALL (      41 calls)
     s_psi        :      0.01s CPU      0.01s WALL (      41 calls)
     g_psi        :      0.00s CPU      0.00s WALL (      33 calls)
     rdiaghg      :      0.50s CPU      0.50s WALL (      40 calls)

     Called by h_psi:
     h_psi:pot    :      0.42s CPU      0.43s WALL (      41 calls)
     h_psi:calbec :      0.02s CPU      0.02s WALL (      41 calls)
     vloc_psi     :      0.39s CPU      0.40s WALL (      41 calls)
     add_vuspsi   :      0.01s CPU      0.01s WALL (      41 calls)

     General routines
     calbec       :      0.02s CPU      0.02s WALL (      48 calls)
     fft          :      0.23s CPU      0.23s WALL (     124 calls)
     ffts         :      0.01s CPU      0.01s WALL (      15 calls)
     fftw         :      0.41s CPU      0.42s WALL (    2202 calls)
     interpolate  :      0.03s CPU      0.04s WALL (      15 calls)
 
     Parallel routines
     fft_scatt_xy :      0.04s CPU      0.04s WALL (    2341 calls)
     fft_scatt_yz :      0.12s CPU      0.12s WALL (    2341 calls)
 
     PWSCF        :     3.90s CPU         5.25s WALL

 
   This run was terminated on:  18:57:13  22Jun2021            

=------------------------------------------------------------------------------=
   JOB DONE.
=------------------------------------------------------------------------------=
