
     Program PWSCF v.6.2 (svn rev. 14038) starts on 22Jun2021 at 18:53: 4 

     This program is part of the open-source Quantum ESPRESSO suite
     for quantum simulation of materials; please cite
         "P. Giannozzi et al., J. Phys.:Condens. Matter 21 395502 (2009);
         "P. Giannozzi et al., J. Phys.:Condens. Matter 29 465901 (2017);
          URL http://www.quantum-espresso.org", 
     in publications or presentations arising from this work. More details at
     http://www.quantum-espresso.org/quote

     Parallel version (MPI), running on    12 processors

     MPI processes distributed on     1 nodes
     R & G space division:  proc/nbgrp/npool/nimage =      12
     Waiting for input...
     Reading input from standard input

     Current dimensions of program PWSCF are:
     Max number of different atomic species (ntypx) = 10
     Max number of k-points (npk) =  40000
     Max angular momentum in pseudopotentials (lmaxx) =  3
               file Ir.pbe-n-rrkjus_psl.0.2.3.UPF: wavefunction(s)  5D renormalized

     gamma-point specific algorithms are used

     Subspace diagonalization in iterative solution of the eigenvalue problem:
     a serial algorithm will be used

 
     Parallelization info
     --------------------
     sticks:   dense  smooth     PW     G-vecs:    dense   smooth      PW
     Min         353     140     34                17398     4383     546
     Max         356     144     36                17404     4390     556
     Sum        4257    1701    421               208801    52635    6619
 


     bravais-lattice index     =            0
     lattice parameter (alat)  =      13.3514  a.u.
     unit-cell volume          =    2380.0325 (a.u.)^3
     number of atoms/cell      =           25
     number of atomic types    =            4
     number of electrons       =        72.00
     number of Kohn-Sham states=          100
     kinetic-energy cutoff     =      30.0000  Ry
     charge density cutoff     =     300.0000  Ry
     convergence threshold     =      1.0E-04
     mixing beta               =       0.3000
     number of iterations used =            8  plain     mixing
     Exchange-correlation      = PBE ( 1  4  3  4 0 0)

     celldm(1)=  13.351425  celldm(2)=   0.000000  celldm(3)=   0.000000
     celldm(4)=   0.000000  celldm(5)=   0.000000  celldm(6)=   0.000000

     crystal axes: (cart. coord. in units of alat)
               a(1) = (   1.000000   0.000000   0.000000 )  
               a(2) = (   0.000000   1.000000   0.000000 )  
               a(3) = (   0.000000   0.000000   1.000000 )  

     reciprocal axes: (cart. coord. in units 2 pi/alat)
               b(1) = (  1.000000  0.000000  0.000000 )  
               b(2) = (  0.000000  1.000000  0.000000 )  
               b(3) = (  0.000000  0.000000  1.000000 )  


     PseudoPot. # 1 for C  read from file:
     /util/academic/espresso/6.2.1/pseudopotentials/upf_files/C.pbe-n-rrkjus_psl.0.1.UPF
     MD5 check sum: ab446d787031eba755f1d5ee46644bb0
     Pseudo is Ultrasoft + core correction, Zval =  4.0
     Generated using "atomic" code by A. Dal Corso v.5.0.2 svn rev. 9415
     Using radial grid of 1073 points,  4 beta functions with: 
                l(1) =   0
                l(2) =   0
                l(3) =   1
                l(4) =   1
     Q(r) pseudized with 0 coefficients 


     PseudoPot. # 2 for H  read from file:
     /util/academic/espresso/6.2.1/pseudopotentials/upf_files/H.pbe-rrkjus_psl.0.1.UPF
     MD5 check sum: bd57da0722753ddfd9833a65b40bb853
     Pseudo is Ultrasoft, Zval =  1.0
     Generated using "atomic" code by A. Dal Corso v.5.0.2 svn rev. 9415
     Using radial grid of  929 points,  2 beta functions with: 
                l(1) =   0
                l(2) =   0
     Q(r) pseudized with 0 coefficients 


     PseudoPot. # 3 for Ir read from file:
     /util/academic/espresso/6.2.1/pseudopotentials/upf_files/Ir.pbe-n-rrkjus_psl.0.2.3.UPF
     MD5 check sum: 0d5bc36db6a0bde07ee800c0d8fcbb77
     Pseudo is Ultrasoft + core correction, Zval =  9.0
     Generated using "atomic" code by A. Dal Corso v.5.0.2 svn rev. 9415
     Using radial grid of 1277 points,  6 beta functions with: 
                l(1) =   0
                l(2) =   0
                l(3) =   1
                l(4) =   1
                l(5) =   2
                l(6) =   2
     Q(r) pseudized with 0 coefficients 


     PseudoPot. # 4 for N  read from file:
     /util/academic/espresso/6.2.1/pseudopotentials/upf_files/N.pbe-n-rrkjus_psl.0.1.UPF
     MD5 check sum: ed8b6a90f28a53b7d71920e7015d2dd6
     Pseudo is Ultrasoft + core correction, Zval =  5.0
     Generated using "atomic" code by A. Dal Corso v.5.0.2 svn rev. 9415
     Using radial grid of 1085 points,  4 beta functions with: 
                l(1) =   0
                l(2) =   0
                l(3) =   1
                l(4) =   1
     Q(r) pseudized with 0 coefficients 


     atomic species   valence    mass     pseudopotential
        C              4.00    12.01000     C ( 1.00)
        H              1.00     1.00700     H ( 1.00)
        Ir             9.00   192.21700     Ir( 1.00)
        N              5.00    14.00600     N ( 1.00)

     No symmetry found



   Cartesian axes

     site n.     atom                  positions (alat units)
         1           Ir  tau(   1) = (  -0.0001708   0.0004982  -0.0011611  )
         2           N   tau(   2) = (   0.1355294  -0.2185317  -0.1604031  )
         3           N   tau(   3) = (  -0.2551085  -0.0090604  -0.1588143  )
         4           N   tau(   4) = (   0.1268651   0.2227346  -0.1605638  )
         5           C   tau(   5) = (  -0.0684841   0.2239936   0.1526481  )
         6           C   tau(   6) = (   0.2258964  -0.0552919   0.1521993  )
         7           C   tau(   7) = (   0.2902618  -0.2761363  -0.0806104  )
         8           C   tau(   8) = (   0.3395288  -0.1867182   0.0866296  )
         9           C   tau(   9) = (  -0.1613438  -0.1721243   0.1539009  )
        10           C   tau(  10) = (   0.0937869   0.3899763  -0.0885016  )
        11           C   tau(  11) = (  -0.0056716   0.4006119   0.0866288  )
        12           C   tau(  12) = (  -0.3845559  -0.1138151  -0.0869604  )
        13           C   tau(  13) = (  -0.3361188  -0.2109134   0.0847473  )
        14           H   tau(  14) = (   0.2590987   0.0220200   0.2844927  )
        15           H   tau(  15) = (   0.4398755  -0.2124300   0.1855919  )
        16           H   tau(  16) = (   0.3887223  -0.3864241  -0.1371250  )
        17           H   tau(  17) = (   0.1381417   0.5114347  -0.1566200  )
        18           H   tau(  18) = (  -0.0357636   0.5343953   0.1575846  )
        19           H   tau(  19) = (  -0.1607617   0.2199963   0.2840631  )
        20           H   tau(  20) = (  -0.3551198  -0.3602370   0.1586876  )
        21           H   tau(  21) = (  -0.1142397  -0.2264630   0.2941789  )
        22           H   tau(  22) = (  -0.5096661  -0.1288001  -0.1716906  )
        23           H   tau(  23) = (   0.0826286  -0.2991236  -0.2764811  )
        24           H   tau(  24) = (   0.1809475   0.2321106  -0.2984243  )
        25           H   tau(  25) = (  -0.3027076   0.0709540  -0.2723501  )

     number of k points=     1  gaussian smearing, width (Ry)=  0.0100
                       cart. coord. in units 2pi/alat
        k(    1) = (   0.0000000   0.0000000   0.0000000), wk =   2.0000000

     Dense  grid:   104401 G-vectors     FFT dimensions: (  75,  75,  75)

     Smooth grid:    26318 G-vectors     FFT dimensions: (  48,  48,  48)

     Estimated max dynamical RAM per process >      46.16 MB

     Estimated total dynamical RAM >     553.92 MB

     Check: negative/imaginary core charge=   -0.000002    0.000000

     Initial potential from superposition of free atoms

     starting charge   71.99934, renormalised to   72.00000
     Starting wfc are   69 randomized atomic wfcs +   31 random wfc

     total cpu time spent up to now is        2.8 secs

     Self-consistent Calculation

     iteration #  1     ecut=    30.00 Ry     beta= 0.30
     Davidson diagonalization with overlap
     ethr =  1.00E-02,  avg # of iterations =  5.0

     total cpu time spent up to now is        3.2 secs

     total energy              =    -243.49534174 Ry
     Harris-Foulkes estimate   =    -244.81148733 Ry
     estimated scf accuracy    <       3.43977853 Ry

     iteration #  2     ecut=    30.00 Ry     beta= 0.30
     Davidson diagonalization with overlap
     ethr =  4.78E-03,  avg # of iterations =  1.0

     total cpu time spent up to now is        3.5 secs

     total energy              =    -243.59284988 Ry
     Harris-Foulkes estimate   =    -243.90783094 Ry
     estimated scf accuracy    <       0.88968938 Ry

     iteration #  3     ecut=    30.00 Ry     beta= 0.30
     Davidson diagonalization with overlap
     ethr =  1.24E-03,  avg # of iterations =  4.0

     total cpu time spent up to now is        3.7 secs

     total energy              =    -243.63088760 Ry
     Harris-Foulkes estimate   =    -243.74158047 Ry
     estimated scf accuracy    <       0.35847225 Ry

     iteration #  4     ecut=    30.00 Ry     beta= 0.30
     Davidson diagonalization with overlap
     ethr =  4.98E-04,  avg # of iterations =  2.0

     total cpu time spent up to now is        3.9 secs

     total energy              =    -243.65588092 Ry
     Harris-Foulkes estimate   =    -243.67501543 Ry
     estimated scf accuracy    <       0.05654191 Ry

     iteration #  5     ecut=    30.00 Ry     beta= 0.30
     Davidson diagonalization with overlap
     ethr =  7.85E-05,  avg # of iterations =  5.0

     total cpu time spent up to now is        4.2 secs

     total energy              =    -243.66631812 Ry
     Harris-Foulkes estimate   =    -243.66697116 Ry
     estimated scf accuracy    <       0.00456644 Ry

     iteration #  6     ecut=    30.00 Ry     beta= 0.30
     Davidson diagonalization with overlap
     ethr =  6.34E-06,  avg # of iterations =  2.0

     total cpu time spent up to now is        4.5 secs

     total energy              =    -243.66652661 Ry
     Harris-Foulkes estimate   =    -243.66662454 Ry
     estimated scf accuracy    <       0.00092359 Ry

     iteration #  7     ecut=    30.00 Ry     beta= 0.30
     Davidson diagonalization with overlap
     ethr =  1.28E-06,  avg # of iterations =  2.0

     total cpu time spent up to now is        4.7 secs

     End of self-consistent calculation

          k = 0.0000 0.0000 0.0000 (  3310 PWs)   bands (ev):

   -18.8080 -18.4228 -17.9425 -14.9054 -13.9939 -13.6967 -11.8315 -10.8839
   -10.6428  -9.3538  -8.6672  -8.4509  -8.1564  -7.6335  -7.6015  -6.8813
    -6.1392  -5.7188  -5.5647  -5.1191  -4.8958  -4.6918  -4.4034  -4.2323
    -4.1528  -3.7349  -3.2720  -2.4720  -2.0962  -1.9737  -1.4849  -1.4530
    -1.0491  -0.2604  -0.1210   0.4207   1.9142   2.6279   2.9561   3.2425
     4.8947   5.1334   5.2891   5.5115   5.7012   5.8015   5.9161   5.9924
     6.5425   6.7403   6.9852   7.2577   7.7801   7.9254   8.3096   8.4510
     8.6050   8.9552   9.1032   9.2856   9.4421   9.6651  10.0093  10.4482
    10.5104  10.9711  11.1334  11.3295  11.5918  11.6673  11.8416  12.1497
    12.3861  12.6403  12.6874  12.7907  13.1978  13.3092  13.5635  13.7882
    14.1581  14.1978  14.4374  14.5716  14.6920  14.9380  14.9744  14.9993
    15.1860  15.2579  15.5603  15.7716  15.8567  16.1654  16.3670  16.4520
    16.4983  16.7632  16.9624  17.0845

     the Fermi energy is     1.1309 ev

!    total energy              =    -243.66669397 Ry
     Harris-Foulkes estimate   =    -243.66661848 Ry
     estimated scf accuracy    <       0.00006978 Ry

     The total energy is the sum of the following terms:

     one-electron contribution =    -350.62131524 Ry
     hartree contribution      =     199.53237270 Ry
     xc contribution           =     -93.52405641 Ry
     ewald contribution        =       0.94630497 Ry
     smearing contrib. (-TS)   =      -0.00000000 Ry

     convergence has been achieved in   7 iterations

     Writing output data file x0.save
 
     init_run     :      0.40s CPU      1.27s WALL (       1 calls)
     electrons    :      1.78s CPU      1.89s WALL (       1 calls)

     Called by init_run:
     wfcinit      :      0.06s CPU      0.09s WALL (       1 calls)
     potinit      :      0.07s CPU      0.07s WALL (       1 calls)

     Called by electrons:
     c_bands      :      0.88s CPU      0.91s WALL (       7 calls)
     sum_band     :      0.41s CPU      0.43s WALL (       7 calls)
     v_of_rho     :      0.22s CPU      0.22s WALL (       8 calls)
     newd         :      0.28s CPU      0.91s WALL (       8 calls)
     mix_rho      :      0.03s CPU      0.03s WALL (       7 calls)

     Called by c_bands:
     init_us_2    :      0.00s CPU      0.00s WALL (      15 calls)
     regterg      :      0.87s CPU      0.89s WALL (       7 calls)

     Called by sum_band:
     sum_band:bec :      0.00s CPU      0.00s WALL (       7 calls)
     addusdens    :      0.28s CPU      0.29s WALL (       7 calls)

     Called by *egterg:
     h_psi        :      0.47s CPU      0.49s WALL (      29 calls)
     s_psi        :      0.01s CPU      0.01s WALL (      29 calls)
     g_psi        :      0.00s CPU      0.00s WALL (      21 calls)
     rdiaghg      :      0.34s CPU      0.36s WALL (      28 calls)

     Called by h_psi:
     h_psi:pot    :      0.47s CPU      0.49s WALL (      29 calls)
     h_psi:calbec :      0.02s CPU      0.02s WALL (      29 calls)
     vloc_psi     :      0.44s CPU      0.46s WALL (      29 calls)
     add_vuspsi   :      0.01s CPU      0.01s WALL (      29 calls)

     General routines
     calbec       :      0.02s CPU      0.02s WALL (      36 calls)
     fft          :      0.30s CPU      0.31s WALL (     124 calls)
     ffts         :      0.01s CPU      0.01s WALL (      15 calls)
     fftw         :      0.47s CPU      0.49s WALL (    2182 calls)
     interpolate  :      0.04s CPU      0.04s WALL (      15 calls)
 
     Parallel routines
     fft_scatt_xy :      0.04s CPU      0.04s WALL (    2321 calls)
     fft_scatt_yz :      0.24s CPU      0.25s WALL (    2321 calls)
 
     PWSCF        :     3.62s CPU         5.24s WALL

 
   This run was terminated on:  18:53: 9  22Jun2021            

=------------------------------------------------------------------------------=
   JOB DONE.
=------------------------------------------------------------------------------=
