
     Program PWSCF v.6.2 (svn rev. 14038) starts on 22Jun2021 at 18:56: 5 

     This program is part of the open-source Quantum ESPRESSO suite
     for quantum simulation of materials; please cite
         "P. Giannozzi et al., J. Phys.:Condens. Matter 21 395502 (2009);
         "P. Giannozzi et al., J. Phys.:Condens. Matter 29 465901 (2017);
          URL http://www.quantum-espresso.org", 
     in publications or presentations arising from this work. More details at
     http://www.quantum-espresso.org/quote

     Parallel version (MPI), running on    12 processors

     MPI processes distributed on     1 nodes
     R & G space division:  proc/nbgrp/npool/nimage =      12
     Waiting for input...
     Reading input from standard input

     Current dimensions of program PWSCF are:
     Max number of different atomic species (ntypx) = 10
     Max number of k-points (npk) =  40000
     Max angular momentum in pseudopotentials (lmaxx) =  3
               file Ir.pbe-n-rrkjus_psl.0.2.3.UPF: wavefunction(s)  5D renormalized

     gamma-point specific algorithms are used

     Subspace diagonalization in iterative solution of the eigenvalue problem:
     a serial algorithm will be used

 
     Parallelization info
     --------------------
     sticks:   dense  smooth     PW     G-vecs:    dense   smooth      PW
     Min         353     140     34                17398     4383     546
     Max         356     144     36                17404     4390     556
     Sum        4257    1701    421               208801    52635    6619
 


     bravais-lattice index     =            0
     lattice parameter (alat)  =      13.3514  a.u.
     unit-cell volume          =    2380.0325 (a.u.)^3
     number of atoms/cell      =           25
     number of atomic types    =            4
     number of electrons       =        72.00
     number of Kohn-Sham states=          100
     kinetic-energy cutoff     =      30.0000  Ry
     charge density cutoff     =     300.0000  Ry
     convergence threshold     =      1.0E-04
     mixing beta               =       0.3000
     number of iterations used =            8  plain     mixing
     Exchange-correlation      = PBE ( 1  4  3  4 0 0)

     celldm(1)=  13.351425  celldm(2)=   0.000000  celldm(3)=   0.000000
     celldm(4)=   0.000000  celldm(5)=   0.000000  celldm(6)=   0.000000

     crystal axes: (cart. coord. in units of alat)
               a(1) = (   1.000000   0.000000   0.000000 )  
               a(2) = (   0.000000   1.000000   0.000000 )  
               a(3) = (   0.000000   0.000000   1.000000 )  

     reciprocal axes: (cart. coord. in units 2 pi/alat)
               b(1) = (  1.000000  0.000000  0.000000 )  
               b(2) = (  0.000000  1.000000  0.000000 )  
               b(3) = (  0.000000  0.000000  1.000000 )  


     PseudoPot. # 1 for C  read from file:
     /util/academic/espresso/6.2.1/pseudopotentials/upf_files/C.pbe-n-rrkjus_psl.0.1.UPF
     MD5 check sum: ab446d787031eba755f1d5ee46644bb0
     Pseudo is Ultrasoft + core correction, Zval =  4.0
     Generated using "atomic" code by A. Dal Corso v.5.0.2 svn rev. 9415
     Using radial grid of 1073 points,  4 beta functions with: 
                l(1) =   0
                l(2) =   0
                l(3) =   1
                l(4) =   1
     Q(r) pseudized with 0 coefficients 


     PseudoPot. # 2 for H  read from file:
     /util/academic/espresso/6.2.1/pseudopotentials/upf_files/H.pbe-rrkjus_psl.0.1.UPF
     MD5 check sum: bd57da0722753ddfd9833a65b40bb853
     Pseudo is Ultrasoft, Zval =  1.0
     Generated using "atomic" code by A. Dal Corso v.5.0.2 svn rev. 9415
     Using radial grid of  929 points,  2 beta functions with: 
                l(1) =   0
                l(2) =   0
     Q(r) pseudized with 0 coefficients 


     PseudoPot. # 3 for Ir read from file:
     /util/academic/espresso/6.2.1/pseudopotentials/upf_files/Ir.pbe-n-rrkjus_psl.0.2.3.UPF
     MD5 check sum: 0d5bc36db6a0bde07ee800c0d8fcbb77
     Pseudo is Ultrasoft + core correction, Zval =  9.0
     Generated using "atomic" code by A. Dal Corso v.5.0.2 svn rev. 9415
     Using radial grid of 1277 points,  6 beta functions with: 
                l(1) =   0
                l(2) =   0
                l(3) =   1
                l(4) =   1
                l(5) =   2
                l(6) =   2
     Q(r) pseudized with 0 coefficients 


     PseudoPot. # 4 for N  read from file:
     /util/academic/espresso/6.2.1/pseudopotentials/upf_files/N.pbe-n-rrkjus_psl.0.1.UPF
     MD5 check sum: ed8b6a90f28a53b7d71920e7015d2dd6
     Pseudo is Ultrasoft + core correction, Zval =  5.0
     Generated using "atomic" code by A. Dal Corso v.5.0.2 svn rev. 9415
     Using radial grid of 1085 points,  4 beta functions with: 
                l(1) =   0
                l(2) =   0
                l(3) =   1
                l(4) =   1
     Q(r) pseudized with 0 coefficients 


     atomic species   valence    mass     pseudopotential
        C              4.00    12.01000     C ( 1.00)
        H              1.00     1.00700     H ( 1.00)
        Ir             9.00   192.21700     Ir( 1.00)
        N              5.00    14.00600     N ( 1.00)

     No symmetry found



   Cartesian axes

     site n.     atom                  positions (alat units)
         1           Ir  tau(   1) = (   0.0012025   0.0038485   0.0010101  )
         2           N   tau(   2) = (   0.1376334  -0.2053488  -0.1716406  )
         3           N   tau(   3) = (  -0.2406241   0.0049703  -0.1710587  )
         4           N   tau(   4) = (   0.1177899   0.2162599  -0.1534330  )
         5           C   tau(   5) = (  -0.0793538   0.2232044   0.1515234  )
         6           C   tau(   6) = (   0.2069580  -0.0553999   0.1825009  )
         7           C   tau(   7) = (   0.2766330  -0.2729666  -0.0645768  )
         8           C   tau(   8) = (   0.3081756  -0.2003883   0.1167758  )
         9           C   tau(   9) = (  -0.1465569  -0.1783730   0.1442459  )
        10           C   tau(  10) = (   0.0789054   0.3869966  -0.1014279  )
        11           C   tau(  11) = (  -0.0067485   0.3952272   0.0914458  )
        12           C   tau(  12) = (  -0.3601791  -0.1282644  -0.1155866  )
        13           C   tau(  13) = (  -0.3075831  -0.2446999   0.0463738  )
        14           H   tau(  14) = (   0.2383187   0.0319848   0.3056917  )
        15           H   tau(  15) = (   0.4063399  -0.2643553   0.2092344  )
        16           H   tau(  16) = (   0.3567698  -0.3881797  -0.1228551  )
        17           H   tau(  17) = (   0.0975386   0.5107504  -0.1851126  )
        18           H   tau(  18) = (  -0.0301524   0.5290976   0.1471821  )
        19           H   tau(  19) = (  -0.1588187   0.2330748   0.2885808  )
        20           H   tau(  20) = (  -0.4009787  -0.3315073   0.1234425  )
        21           H   tau(  21) = (  -0.1273471  -0.2442946   0.2826292  )
        22           H   tau(  22) = (  -0.4899349  -0.1330906  -0.1914218  )
        23           H   tau(  23) = (   0.1308416  -0.2737511  -0.2994511  )
        24           H   tau(  24) = (   0.1722498   0.1846604  -0.2854566  )
        25           H   tau(  25) = (  -0.2754097   0.0805950  -0.2953736  )

     number of k points=     1  gaussian smearing, width (Ry)=  0.0100
                       cart. coord. in units 2pi/alat
        k(    1) = (   0.0000000   0.0000000   0.0000000), wk =   2.0000000

     Dense  grid:   104401 G-vectors     FFT dimensions: (  75,  75,  75)

     Smooth grid:    26318 G-vectors     FFT dimensions: (  48,  48,  48)

     Estimated max dynamical RAM per process >      46.16 MB

     Estimated total dynamical RAM >     553.92 MB

     Check: negative/imaginary core charge=   -0.000002    0.000000

     Initial potential from superposition of free atoms

     starting charge   71.99934, renormalised to   72.00000
     Starting wfc are   69 randomized atomic wfcs +   31 random wfc

     total cpu time spent up to now is        2.5 secs

     Self-consistent Calculation

     iteration #  1     ecut=    30.00 Ry     beta= 0.30
     Davidson diagonalization with overlap
     ethr =  1.00E-02,  avg # of iterations =  5.0

     total cpu time spent up to now is        2.8 secs

     total energy              =    -243.66880333 Ry
     Harris-Foulkes estimate   =    -244.91578071 Ry
     estimated scf accuracy    <       3.30325594 Ry

     iteration #  2     ecut=    30.00 Ry     beta= 0.30
     Davidson diagonalization with overlap
     ethr =  4.59E-03,  avg # of iterations =  1.0

     total cpu time spent up to now is        3.0 secs

     total energy              =    -243.74188233 Ry
     Harris-Foulkes estimate   =    -244.04046572 Ry
     estimated scf accuracy    <       0.83758933 Ry

     iteration #  3     ecut=    30.00 Ry     beta= 0.30
     Davidson diagonalization with overlap
     ethr =  1.16E-03,  avg # of iterations =  4.0

     total cpu time spent up to now is        3.3 secs

     total energy              =    -243.77134105 Ry
     Harris-Foulkes estimate   =    -243.87581613 Ry
     estimated scf accuracy    <       0.33444779 Ry

     iteration #  4     ecut=    30.00 Ry     beta= 0.30
     Davidson diagonalization with overlap
     ethr =  4.65E-04,  avg # of iterations =  3.0

     negative rho (up, down):  7.151E-08 0.000E+00

     total cpu time spent up to now is        3.5 secs

     total energy              =    -243.79432767 Ry
     Harris-Foulkes estimate   =    -243.81245095 Ry
     estimated scf accuracy    <       0.05408848 Ry

     iteration #  5     ecut=    30.00 Ry     beta= 0.30
     Davidson diagonalization with overlap
     ethr =  7.51E-05,  avg # of iterations =  6.0

     negative rho (up, down):  5.809E-08 0.000E+00

     total cpu time spent up to now is        3.9 secs

     total energy              =    -243.80368846 Ry
     Harris-Foulkes estimate   =    -243.80453585 Ry
     estimated scf accuracy    <       0.00495145 Ry

     iteration #  6     ecut=    30.00 Ry     beta= 0.30
     Davidson diagonalization with overlap
     ethr =  6.88E-06,  avg # of iterations =  2.0

     negative rho (up, down):  2.801E-08 0.000E+00

     total cpu time spent up to now is        4.1 secs

     total energy              =    -243.80395520 Ry
     Harris-Foulkes estimate   =    -243.80404712 Ry
     estimated scf accuracy    <       0.00091678 Ry

     iteration #  7     ecut=    30.00 Ry     beta= 0.30
     Davidson diagonalization with overlap
     ethr =  1.27E-06,  avg # of iterations =  1.0

     total cpu time spent up to now is        4.3 secs

     End of self-consistent calculation

          k = 0.0000 0.0000 0.0000 (  3310 PWs)   bands (ev):

   -18.5099 -18.1512 -17.7429 -14.5687 -13.8057 -13.6494 -11.6226 -10.8898
   -10.5659  -9.1966  -8.7656  -8.4864  -8.2671  -7.9647  -7.8250  -6.5733
    -6.1870  -5.9372  -5.4759  -5.1942  -5.0125  -4.7751  -4.5474  -4.2017
    -3.8960  -3.7665  -3.4413  -2.6004  -2.2465  -2.0308  -1.6508  -1.4462
    -1.2786  -0.3484  -0.2243   0.1349   1.9199   2.5541   3.0803   3.2064
     4.8271   5.0159   5.3697   5.6151   5.6569   5.6957   5.9702   6.1447
     6.5777   6.8489   7.1452   7.4134   7.7671   7.9422   8.3726   8.5111
     8.6168   9.0648   9.1517   9.2024   9.6557   9.7852   9.8851  10.8097
    10.8741  11.0903  11.1693  11.3028  11.3808  11.7965  11.9476  12.2030
    12.3926  12.4828  12.6366  12.7962  12.9851  13.3587  13.5174  13.8530
    13.9983  14.2026  14.2310  14.5568  14.6969  14.7372  14.8310  15.1049
    15.1154  15.2761  15.4993  15.6974  15.7999  15.9286  16.3437  16.6055
    16.7743  16.8302  17.0155  17.1718

     the Fermi energy is     1.0290 ev

!    total energy              =    -243.80409895 Ry
     Harris-Foulkes estimate   =    -243.80403359 Ry
     estimated scf accuracy    <       0.00008620 Ry

     The total energy is the sum of the following terms:

     one-electron contribution =    -344.81416068 Ry
     hartree contribution      =     196.54929014 Ry
     xc contribution           =     -93.44353695 Ry
     ewald contribution        =      -2.09569146 Ry
     smearing contrib. (-TS)   =      -0.00000000 Ry

     convergence has been achieved in   7 iterations

     Writing output data file x0.save
 
     init_run     :      0.34s CPU      0.66s WALL (       1 calls)
     electrons    :      1.78s CPU      1.95s WALL (       1 calls)

     Called by init_run:
     wfcinit      :      0.04s CPU      0.04s WALL (       1 calls)
     potinit      :      0.07s CPU      0.08s WALL (       1 calls)

     Called by electrons:
     c_bands      :      0.87s CPU      0.90s WALL (       7 calls)
     sum_band     :      0.42s CPU      0.44s WALL (       7 calls)
     v_of_rho     :      0.22s CPU      0.23s WALL (       8 calls)
     newd         :      0.26s CPU      0.55s WALL (       8 calls)
     mix_rho      :      0.02s CPU      0.03s WALL (       7 calls)

     Called by c_bands:
     init_us_2    :      0.00s CPU      0.00s WALL (      15 calls)
     regterg      :      0.86s CPU      0.88s WALL (       7 calls)

     Called by sum_band:
     sum_band:bec :      0.00s CPU      0.00s WALL (       7 calls)
     addusdens    :      0.28s CPU      0.29s WALL (       7 calls)

     Called by *egterg:
     h_psi        :      0.43s CPU      0.45s WALL (      30 calls)
     s_psi        :      0.01s CPU      0.01s WALL (      30 calls)
     g_psi        :      0.00s CPU      0.00s WALL (      22 calls)
     rdiaghg      :      0.35s CPU      0.35s WALL (      29 calls)

     Called by h_psi:
     h_psi:pot    :      0.43s CPU      0.44s WALL (      30 calls)
     h_psi:calbec :      0.02s CPU      0.02s WALL (      30 calls)
     vloc_psi     :      0.40s CPU      0.41s WALL (      30 calls)
     add_vuspsi   :      0.01s CPU      0.01s WALL (      30 calls)

     General routines
     calbec       :      0.02s CPU      0.02s WALL (      37 calls)
     fft          :      0.25s CPU      0.26s WALL (     124 calls)
     ffts         :      0.01s CPU      0.01s WALL (      15 calls)
     fftw         :      0.43s CPU      0.44s WALL (    2186 calls)
     interpolate  :      0.04s CPU      0.04s WALL (      15 calls)
 
     Parallel routines
     fft_scatt_xy :      0.04s CPU      0.04s WALL (    2325 calls)
     fft_scatt_yz :      0.17s CPU      0.18s WALL (    2325 calls)
 
     PWSCF        :     3.74s CPU         5.06s WALL

 
   This run was terminated on:  18:56:10  22Jun2021            

=------------------------------------------------------------------------------=
   JOB DONE.
=------------------------------------------------------------------------------=
