
     Program PWSCF v.6.2 (svn rev. 14038) starts on 22Jun2021 at 18:56:51 

     This program is part of the open-source Quantum ESPRESSO suite
     for quantum simulation of materials; please cite
         "P. Giannozzi et al., J. Phys.:Condens. Matter 21 395502 (2009);
         "P. Giannozzi et al., J. Phys.:Condens. Matter 29 465901 (2017);
          URL http://www.quantum-espresso.org", 
     in publications or presentations arising from this work. More details at
     http://www.quantum-espresso.org/quote

     Parallel version (MPI), running on    12 processors

     MPI processes distributed on     1 nodes
     R & G space division:  proc/nbgrp/npool/nimage =      12
     Waiting for input...
     Reading input from standard input

     Current dimensions of program PWSCF are:
     Max number of different atomic species (ntypx) = 10
     Max number of k-points (npk) =  40000
     Max angular momentum in pseudopotentials (lmaxx) =  3
               file Ir.pbe-n-rrkjus_psl.0.2.3.UPF: wavefunction(s)  5D renormalized

     gamma-point specific algorithms are used

     Subspace diagonalization in iterative solution of the eigenvalue problem:
     a serial algorithm will be used

 
     Parallelization info
     --------------------
     sticks:   dense  smooth     PW     G-vecs:    dense   smooth      PW
     Min         353     140     34                17398     4383     546
     Max         356     144     36                17404     4390     556
     Sum        4257    1701    421               208801    52635    6619
 


     bravais-lattice index     =            0
     lattice parameter (alat)  =      13.3514  a.u.
     unit-cell volume          =    2380.0325 (a.u.)^3
     number of atoms/cell      =           25
     number of atomic types    =            4
     number of electrons       =        72.00
     number of Kohn-Sham states=          100
     kinetic-energy cutoff     =      30.0000  Ry
     charge density cutoff     =     300.0000  Ry
     convergence threshold     =      1.0E-04
     mixing beta               =       0.3000
     number of iterations used =            8  plain     mixing
     Exchange-correlation      = PBE ( 1  4  3  4 0 0)

     celldm(1)=  13.351425  celldm(2)=   0.000000  celldm(3)=   0.000000
     celldm(4)=   0.000000  celldm(5)=   0.000000  celldm(6)=   0.000000

     crystal axes: (cart. coord. in units of alat)
               a(1) = (   1.000000   0.000000   0.000000 )  
               a(2) = (   0.000000   1.000000   0.000000 )  
               a(3) = (   0.000000   0.000000   1.000000 )  

     reciprocal axes: (cart. coord. in units 2 pi/alat)
               b(1) = (  1.000000  0.000000  0.000000 )  
               b(2) = (  0.000000  1.000000  0.000000 )  
               b(3) = (  0.000000  0.000000  1.000000 )  


     PseudoPot. # 1 for C  read from file:
     /util/academic/espresso/6.2.1/pseudopotentials/upf_files/C.pbe-n-rrkjus_psl.0.1.UPF
     MD5 check sum: ab446d787031eba755f1d5ee46644bb0
     Pseudo is Ultrasoft + core correction, Zval =  4.0
     Generated using "atomic" code by A. Dal Corso v.5.0.2 svn rev. 9415
     Using radial grid of 1073 points,  4 beta functions with: 
                l(1) =   0
                l(2) =   0
                l(3) =   1
                l(4) =   1
     Q(r) pseudized with 0 coefficients 


     PseudoPot. # 2 for H  read from file:
     /util/academic/espresso/6.2.1/pseudopotentials/upf_files/H.pbe-rrkjus_psl.0.1.UPF
     MD5 check sum: bd57da0722753ddfd9833a65b40bb853
     Pseudo is Ultrasoft, Zval =  1.0
     Generated using "atomic" code by A. Dal Corso v.5.0.2 svn rev. 9415
     Using radial grid of  929 points,  2 beta functions with: 
                l(1) =   0
                l(2) =   0
     Q(r) pseudized with 0 coefficients 


     PseudoPot. # 3 for Ir read from file:
     /util/academic/espresso/6.2.1/pseudopotentials/upf_files/Ir.pbe-n-rrkjus_psl.0.2.3.UPF
     MD5 check sum: 0d5bc36db6a0bde07ee800c0d8fcbb77
     Pseudo is Ultrasoft + core correction, Zval =  9.0
     Generated using "atomic" code by A. Dal Corso v.5.0.2 svn rev. 9415
     Using radial grid of 1277 points,  6 beta functions with: 
                l(1) =   0
                l(2) =   0
                l(3) =   1
                l(4) =   1
                l(5) =   2
                l(6) =   2
     Q(r) pseudized with 0 coefficients 


     PseudoPot. # 4 for N  read from file:
     /util/academic/espresso/6.2.1/pseudopotentials/upf_files/N.pbe-n-rrkjus_psl.0.1.UPF
     MD5 check sum: ed8b6a90f28a53b7d71920e7015d2dd6
     Pseudo is Ultrasoft + core correction, Zval =  5.0
     Generated using "atomic" code by A. Dal Corso v.5.0.2 svn rev. 9415
     Using radial grid of 1085 points,  4 beta functions with: 
                l(1) =   0
                l(2) =   0
                l(3) =   1
                l(4) =   1
     Q(r) pseudized with 0 coefficients 


     atomic species   valence    mass     pseudopotential
        C              4.00    12.01000     C ( 1.00)
        H              1.00     1.00700     H ( 1.00)
        Ir             9.00   192.21700     Ir( 1.00)
        N              5.00    14.00600     N ( 1.00)

     No symmetry found



   Cartesian axes

     site n.     atom                  positions (alat units)
         1           Ir  tau(   1) = (   0.0007764   0.0034640   0.0009276  )
         2           N   tau(   2) = (   0.1542000  -0.1940589  -0.1639270  )
         3           N   tau(   3) = (  -0.2380990   0.0043165  -0.1657536  )
         4           N   tau(   4) = (   0.1136419   0.2107075  -0.1621235  )
         5           C   tau(   5) = (  -0.0823170   0.2314200   0.1518845  )
         6           C   tau(   6) = (   0.2058897  -0.0511193   0.1820871  )
         7           C   tau(   7) = (   0.2842699  -0.2709557  -0.0623756  )
         8           C   tau(   8) = (   0.3043537  -0.2093631   0.1324683  )
         9           C   tau(   9) = (  -0.1547749  -0.1770016   0.1337514  )
        10           C   tau(  10) = (   0.0711583   0.3790200  -0.0953037  )
        11           C   tau(  11) = (  -0.0095213   0.3933529   0.0841977  )
        12           C   tau(  12) = (  -0.3554365  -0.1276420  -0.1186630  )
        13           C   tau(  13) = (  -0.3048914  -0.2376156   0.0401052  )
        14           H   tau(  14) = (   0.2573122   0.0252989   0.3002200  )
        15           H   tau(  15) = (   0.4142826  -0.2833591   0.2258964  )
        16           H   tau(  16) = (   0.3614797  -0.3917434  -0.1150192  )
        17           H   tau(  17) = (   0.0835696   0.4849036  -0.1897902  )
        18           H   tau(  18) = (  -0.0393419   0.5218419   0.1553916  )
        19           H   tau(  19) = (  -0.1395852   0.2319354   0.2932067  )
        20           H   tau(  20) = (  -0.4029685  -0.3408671   0.1148211  )
        21           H   tau(  21) = (  -0.1317716  -0.2171727   0.2774309  )
        22           H   tau(  22) = (  -0.4701967  -0.1726130  -0.2087784  )
        23           H   tau(  23) = (   0.1175703  -0.2685292  -0.2888159  )
        24           H   tau(  24) = (   0.1441346   0.2247413  -0.3007015  )
        25           H   tau(  25) = (  -0.2641859   0.0664663  -0.2939878  )

     number of k points=     1  gaussian smearing, width (Ry)=  0.0100
                       cart. coord. in units 2pi/alat
        k(    1) = (   0.0000000   0.0000000   0.0000000), wk =   2.0000000

     Dense  grid:   104401 G-vectors     FFT dimensions: (  75,  75,  75)

     Smooth grid:    26318 G-vectors     FFT dimensions: (  48,  48,  48)

     Estimated max dynamical RAM per process >      46.16 MB

     Estimated total dynamical RAM >     553.92 MB

     Check: negative/imaginary core charge=   -0.000002    0.000000

     Initial potential from superposition of free atoms

     starting charge   71.99934, renormalised to   72.00000
     Starting wfc are   69 randomized atomic wfcs +   31 random wfc

     total cpu time spent up to now is        2.5 secs

     Self-consistent Calculation

     iteration #  1     ecut=    30.00 Ry     beta= 0.30
     Davidson diagonalization with overlap
     ethr =  1.00E-02,  avg # of iterations =  5.0

     total cpu time spent up to now is        3.0 secs

     total energy              =    -243.65127311 Ry
     Harris-Foulkes estimate   =    -245.00400337 Ry
     estimated scf accuracy    <       3.54118236 Ry

     iteration #  2     ecut=    30.00 Ry     beta= 0.30
     Davidson diagonalization with overlap
     ethr =  4.92E-03,  avg # of iterations =  1.0

     total cpu time spent up to now is        3.2 secs

     total energy              =    -243.73697913 Ry
     Harris-Foulkes estimate   =    -244.05707127 Ry
     estimated scf accuracy    <       0.88895085 Ry

     iteration #  3     ecut=    30.00 Ry     beta= 0.30
     Davidson diagonalization with overlap
     ethr =  1.23E-03,  avg # of iterations =  4.0

     total cpu time spent up to now is        3.5 secs

     total energy              =    -243.77403447 Ry
     Harris-Foulkes estimate   =    -243.88169584 Ry
     estimated scf accuracy    <       0.34219350 Ry

     iteration #  4     ecut=    30.00 Ry     beta= 0.30
     Davidson diagonalization with overlap
     ethr =  4.75E-04,  avg # of iterations =  2.0

     negative rho (up, down):  1.899E-07 0.000E+00

     total cpu time spent up to now is        3.7 secs

     total energy              =    -243.79592997 Ry
     Harris-Foulkes estimate   =    -243.81531078 Ry
     estimated scf accuracy    <       0.05586257 Ry

     iteration #  5     ecut=    30.00 Ry     beta= 0.30
     Davidson diagonalization with overlap
     ethr =  7.76E-05,  avg # of iterations =  6.0

     negative rho (up, down):  1.094E-07 0.000E+00

     total cpu time spent up to now is        4.0 secs

     total energy              =    -243.80631496 Ry
     Harris-Foulkes estimate   =    -243.80706426 Ry
     estimated scf accuracy    <       0.00459593 Ry

     iteration #  6     ecut=    30.00 Ry     beta= 0.30
     Davidson diagonalization with overlap
     ethr =  6.38E-06,  avg # of iterations =  2.0

     negative rho (up, down):  6.131E-08 0.000E+00

     total cpu time spent up to now is        4.3 secs

     total energy              =    -243.80650428 Ry
     Harris-Foulkes estimate   =    -243.80662749 Ry
     estimated scf accuracy    <       0.00093652 Ry

     iteration #  7     ecut=    30.00 Ry     beta= 0.30
     Davidson diagonalization with overlap
     ethr =  1.30E-06,  avg # of iterations =  2.0

     total cpu time spent up to now is        4.5 secs

     End of self-consistent calculation

          k = 0.0000 0.0000 0.0000 (  3310 PWs)   bands (ev):

   -18.6105 -18.3123 -18.2692 -14.3974 -14.2342 -13.8870 -11.5497 -10.9846
   -10.5909  -9.1576  -8.6852  -8.3956  -8.3058  -8.0548  -7.8329  -6.6205
    -6.0275  -5.7661  -5.6058  -5.4174  -5.0290  -4.7335  -4.4424  -4.3410
    -4.0633  -3.9735  -3.7006  -2.4260  -2.1526  -2.0874  -1.6541  -1.5448
    -1.2309  -0.4291  -0.2284   0.1870   2.0496   2.6885   3.0897   3.1152
     4.8220   5.1403   5.3662   5.6310   5.7367   5.7773   6.0512   6.1854
     6.5089   6.9854   7.1648   7.5516   7.7758   7.9744   8.1059   8.3961
     8.6029   8.8318   9.0628   9.4470   9.7435  10.0086  10.1550  10.4820
    10.9001  11.0403  11.1634  11.5337  11.7490  11.8444  12.2003  12.4095
    12.5813  12.6447  12.7443  13.0171  13.1011  13.3800  13.5684  13.9270
    14.1169  14.1863  14.3472  14.5032  14.6683  14.8389  14.9643  15.0925
    15.1592  15.3626  15.5456  15.6896  15.9448  16.0899  16.3638  16.5022
    16.6020  16.9230  17.0779  17.0978

     the Fermi energy is     0.9430 ev

!    total energy              =    -243.80666323 Ry
     Harris-Foulkes estimate   =    -243.80659559 Ry
     estimated scf accuracy    <       0.00006722 Ry

     The total energy is the sum of the following terms:

     one-electron contribution =    -349.78272513 Ry
     hartree contribution      =     199.05807114 Ry
     xc contribution           =     -93.69235765 Ry
     ewald contribution        =       0.61034840 Ry
     smearing contrib. (-TS)   =      -0.00000000 Ry

     convergence has been achieved in   7 iterations

     Writing output data file x0.save
 
     init_run     :      0.37s CPU      0.74s WALL (       1 calls)
     electrons    :      1.87s CPU      2.04s WALL (       1 calls)

     Called by init_run:
     wfcinit      :      0.04s CPU      0.04s WALL (       1 calls)
     potinit      :      0.06s CPU      0.07s WALL (       1 calls)

     Called by electrons:
     c_bands      :      0.95s CPU      0.98s WALL (       7 calls)
     sum_band     :      0.43s CPU      0.44s WALL (       7 calls)
     v_of_rho     :      0.22s CPU      0.23s WALL (       8 calls)
     newd         :      0.27s CPU      0.61s WALL (       8 calls)
     mix_rho      :      0.03s CPU      0.03s WALL (       7 calls)

     Called by c_bands:
     init_us_2    :      0.00s CPU      0.01s WALL (      15 calls)
     regterg      :      0.94s CPU      0.97s WALL (       7 calls)

     Called by sum_band:
     sum_band:bec :      0.00s CPU      0.00s WALL (       7 calls)
     addusdens    :      0.29s CPU      0.29s WALL (       7 calls)

     Called by *egterg:
     h_psi        :      0.48s CPU      0.50s WALL (      30 calls)
     s_psi        :      0.01s CPU      0.01s WALL (      30 calls)
     g_psi        :      0.00s CPU      0.00s WALL (      22 calls)
     rdiaghg      :      0.36s CPU      0.37s WALL (      29 calls)

     Called by h_psi:
     h_psi:pot    :      0.48s CPU      0.50s WALL (      30 calls)
     h_psi:calbec :      0.02s CPU      0.02s WALL (      30 calls)
     vloc_psi     :      0.45s CPU      0.47s WALL (      30 calls)
     add_vuspsi   :      0.01s CPU      0.01s WALL (      30 calls)

     General routines
     calbec       :      0.03s CPU      0.03s WALL (      37 calls)
     fft          :      0.23s CPU      0.24s WALL (     124 calls)
     ffts         :      0.01s CPU      0.01s WALL (      15 calls)
     fftw         :      0.48s CPU      0.50s WALL (    2190 calls)
     interpolate  :      0.03s CPU      0.04s WALL (      15 calls)
 
     Parallel routines
     fft_scatt_xy :      0.04s CPU      0.04s WALL (    2329 calls)
     fft_scatt_yz :      0.18s CPU      0.19s WALL (    2329 calls)
 
     PWSCF        :     3.78s CPU         5.10s WALL

 
   This run was terminated on:  18:56:56  22Jun2021            

=------------------------------------------------------------------------------=
   JOB DONE.
=------------------------------------------------------------------------------=
