
     Program PWSCF v.6.2 (svn rev. 14038) starts on 22Jun2021 at 18:55:34 

     This program is part of the open-source Quantum ESPRESSO suite
     for quantum simulation of materials; please cite
         "P. Giannozzi et al., J. Phys.:Condens. Matter 21 395502 (2009);
         "P. Giannozzi et al., J. Phys.:Condens. Matter 29 465901 (2017);
          URL http://www.quantum-espresso.org", 
     in publications or presentations arising from this work. More details at
     http://www.quantum-espresso.org/quote

     Parallel version (MPI), running on    12 processors

     MPI processes distributed on     1 nodes
     R & G space division:  proc/nbgrp/npool/nimage =      12
     Waiting for input...
     Reading input from standard input

     Current dimensions of program PWSCF are:
     Max number of different atomic species (ntypx) = 10
     Max number of k-points (npk) =  40000
     Max angular momentum in pseudopotentials (lmaxx) =  3
               file Ir.pbe-n-rrkjus_psl.0.2.3.UPF: wavefunction(s)  5D renormalized

     gamma-point specific algorithms are used

     Subspace diagonalization in iterative solution of the eigenvalue problem:
     a serial algorithm will be used

 
     Parallelization info
     --------------------
     sticks:   dense  smooth     PW     G-vecs:    dense   smooth      PW
     Min         353     140     34                17398     4383     546
     Max         356     144     36                17404     4390     556
     Sum        4257    1701    421               208801    52635    6619
 


     bravais-lattice index     =            0
     lattice parameter (alat)  =      13.3514  a.u.
     unit-cell volume          =    2380.0325 (a.u.)^3
     number of atoms/cell      =           25
     number of atomic types    =            4
     number of electrons       =        72.00
     number of Kohn-Sham states=          100
     kinetic-energy cutoff     =      30.0000  Ry
     charge density cutoff     =     300.0000  Ry
     convergence threshold     =      1.0E-04
     mixing beta               =       0.3000
     number of iterations used =            8  plain     mixing
     Exchange-correlation      = PBE ( 1  4  3  4 0 0)

     celldm(1)=  13.351425  celldm(2)=   0.000000  celldm(3)=   0.000000
     celldm(4)=   0.000000  celldm(5)=   0.000000  celldm(6)=   0.000000

     crystal axes: (cart. coord. in units of alat)
               a(1) = (   1.000000   0.000000   0.000000 )  
               a(2) = (   0.000000   1.000000   0.000000 )  
               a(3) = (   0.000000   0.000000   1.000000 )  

     reciprocal axes: (cart. coord. in units 2 pi/alat)
               b(1) = (  1.000000  0.000000  0.000000 )  
               b(2) = (  0.000000  1.000000  0.000000 )  
               b(3) = (  0.000000  0.000000  1.000000 )  


     PseudoPot. # 1 for C  read from file:
     /util/academic/espresso/6.2.1/pseudopotentials/upf_files/C.pbe-n-rrkjus_psl.0.1.UPF
     MD5 check sum: ab446d787031eba755f1d5ee46644bb0
     Pseudo is Ultrasoft + core correction, Zval =  4.0
     Generated using "atomic" code by A. Dal Corso v.5.0.2 svn rev. 9415
     Using radial grid of 1073 points,  4 beta functions with: 
                l(1) =   0
                l(2) =   0
                l(3) =   1
                l(4) =   1
     Q(r) pseudized with 0 coefficients 


     PseudoPot. # 2 for H  read from file:
     /util/academic/espresso/6.2.1/pseudopotentials/upf_files/H.pbe-rrkjus_psl.0.1.UPF
     MD5 check sum: bd57da0722753ddfd9833a65b40bb853
     Pseudo is Ultrasoft, Zval =  1.0
     Generated using "atomic" code by A. Dal Corso v.5.0.2 svn rev. 9415
     Using radial grid of  929 points,  2 beta functions with: 
                l(1) =   0
                l(2) =   0
     Q(r) pseudized with 0 coefficients 


     PseudoPot. # 3 for Ir read from file:
     /util/academic/espresso/6.2.1/pseudopotentials/upf_files/Ir.pbe-n-rrkjus_psl.0.2.3.UPF
     MD5 check sum: 0d5bc36db6a0bde07ee800c0d8fcbb77
     Pseudo is Ultrasoft + core correction, Zval =  9.0
     Generated using "atomic" code by A. Dal Corso v.5.0.2 svn rev. 9415
     Using radial grid of 1277 points,  6 beta functions with: 
                l(1) =   0
                l(2) =   0
                l(3) =   1
                l(4) =   1
                l(5) =   2
                l(6) =   2
     Q(r) pseudized with 0 coefficients 


     PseudoPot. # 4 for N  read from file:
     /util/academic/espresso/6.2.1/pseudopotentials/upf_files/N.pbe-n-rrkjus_psl.0.1.UPF
     MD5 check sum: ed8b6a90f28a53b7d71920e7015d2dd6
     Pseudo is Ultrasoft + core correction, Zval =  5.0
     Generated using "atomic" code by A. Dal Corso v.5.0.2 svn rev. 9415
     Using radial grid of 1085 points,  4 beta functions with: 
                l(1) =   0
                l(2) =   0
                l(3) =   1
                l(4) =   1
     Q(r) pseudized with 0 coefficients 


     atomic species   valence    mass     pseudopotential
        C              4.00    12.01000     C ( 1.00)
        H              1.00     1.00700     H ( 1.00)
        Ir             9.00   192.21700     Ir( 1.00)
        N              5.00    14.00600     N ( 1.00)

     No symmetry found



   Cartesian axes

     site n.     atom                  positions (alat units)
         1           Ir  tau(   1) = (  -0.0001234   0.0043491   0.0014783  )
         2           N   tau(   2) = (   0.1334014  -0.2071918  -0.1718737  )
         3           N   tau(   3) = (  -0.2448235   0.0011639  -0.1744019  )
         4           N   tau(   4) = (   0.1266376   0.2156986  -0.1528001  )
         5           C   tau(   5) = (  -0.0743447   0.2262453   0.1510478  )
         6           C   tau(   6) = (   0.2091684  -0.0549515   0.1766828  )
         7           C   tau(   7) = (   0.2687549  -0.2754048  -0.0685033  )
         8           C   tau(   8) = (   0.3155894  -0.2001693   0.1122991  )
         9           C   tau(   9) = (  -0.1468784  -0.1790339   0.1452289  )
        10           C   tau(  10) = (   0.0804701   0.3850114  -0.1016154  )
        11           C   tau(  11) = (  -0.0038051   0.3925970   0.0874640  )
        12           C   tau(  12) = (  -0.3580170  -0.1260166  -0.1101953  )
        13           C   tau(  13) = (  -0.3086504  -0.2410916   0.0530274  )
        14           H   tau(  14) = (   0.2550421   0.0250641   0.3026587  )
        15           H   tau(  15) = (   0.4160568  -0.2708166   0.2085122  )
        16           H   tau(  16) = (   0.3751945  -0.3891393  -0.1051111  )
        17           H   tau(  17) = (   0.1017184   0.5050316  -0.1921699  )
        18           H   tau(  18) = (  -0.0128747   0.5393654   0.1527515  )
        19           H   tau(  19) = (  -0.1383279   0.2238984   0.2920563  )
        20           H   tau(  20) = (  -0.4014744  -0.3540656   0.1136726  )
        21           H   tau(  21) = (  -0.1010205  -0.2447184   0.2841770  )
        22           H   tau(  22) = (  -0.4966742  -0.1362690  -0.1881285  )
        23           H   tau(  23) = (   0.1156441  -0.2743314  -0.3041340  )
        24           H   tau(  24) = (   0.1878327   0.1959606  -0.2796379  )
        25           H   tau(  25) = (  -0.2779484   0.0837801  -0.2863642  )

     number of k points=     1  gaussian smearing, width (Ry)=  0.0100
                       cart. coord. in units 2pi/alat
        k(    1) = (   0.0000000   0.0000000   0.0000000), wk =   2.0000000

     Dense  grid:   104401 G-vectors     FFT dimensions: (  75,  75,  75)

     Smooth grid:    26318 G-vectors     FFT dimensions: (  48,  48,  48)

     Estimated max dynamical RAM per process >      46.16 MB

     Estimated total dynamical RAM >     553.92 MB

     Check: negative/imaginary core charge=   -0.000002    0.000000

     Initial potential from superposition of free atoms

     starting charge   71.99934, renormalised to   72.00000
     Starting wfc are   69 randomized atomic wfcs +   31 random wfc

     total cpu time spent up to now is        2.7 secs

     Self-consistent Calculation

     iteration #  1     ecut=    30.00 Ry     beta= 0.30
     Davidson diagonalization with overlap
     ethr =  1.00E-02,  avg # of iterations =  5.0

     total cpu time spent up to now is        3.1 secs

     total energy              =    -243.67762008 Ry
     Harris-Foulkes estimate   =    -244.90410529 Ry
     estimated scf accuracy    <       3.23769193 Ry

     iteration #  2     ecut=    30.00 Ry     beta= 0.30
     Davidson diagonalization with overlap
     ethr =  4.50E-03,  avg # of iterations =  1.0

     total cpu time spent up to now is        3.3 secs

     total energy              =    -243.75388010 Ry
     Harris-Foulkes estimate   =    -244.03046367 Ry
     estimated scf accuracy    <       0.76672375 Ry

     iteration #  3     ecut=    30.00 Ry     beta= 0.30
     Davidson diagonalization with overlap
     ethr =  1.06E-03,  avg # of iterations =  4.0

     total cpu time spent up to now is        3.6 secs

     total energy              =    -243.78421319 Ry
     Harris-Foulkes estimate   =    -243.87834421 Ry
     estimated scf accuracy    <       0.31026647 Ry

     iteration #  4     ecut=    30.00 Ry     beta= 0.30
     Davidson diagonalization with overlap
     ethr =  4.31E-04,  avg # of iterations =  3.0

     negative rho (up, down):  1.247E-07 0.000E+00

     total cpu time spent up to now is        3.8 secs

     total energy              =    -243.80410604 Ry
     Harris-Foulkes estimate   =    -243.82243452 Ry
     estimated scf accuracy    <       0.05452549 Ry

     iteration #  5     ecut=    30.00 Ry     beta= 0.30
     Davidson diagonalization with overlap
     ethr =  7.57E-05,  avg # of iterations =  6.0

     negative rho (up, down):  8.984E-08 0.000E+00

     total cpu time spent up to now is        4.2 secs

     total energy              =    -243.81277977 Ry
     Harris-Foulkes estimate   =    -243.81345693 Ry
     estimated scf accuracy    <       0.00435668 Ry

     iteration #  6     ecut=    30.00 Ry     beta= 0.30
     Davidson diagonalization with overlap
     ethr =  6.05E-06,  avg # of iterations =  3.0

     negative rho (up, down):  1.694E-08 0.000E+00

     total cpu time spent up to now is        4.4 secs

     total energy              =    -243.81312741 Ry
     Harris-Foulkes estimate   =    -243.81323143 Ry
     estimated scf accuracy    <       0.00081977 Ry

     iteration #  7     ecut=    30.00 Ry     beta= 0.30
     Davidson diagonalization with overlap
     ethr =  1.14E-06,  avg # of iterations = 15.0

     total cpu time spent up to now is        4.8 secs

     End of self-consistent calculation

          k = 0.0000 0.0000 0.0000 (  3310 PWs)   bands (ev):

   -18.6169 -18.2474 -18.1262 -14.4129 -13.9102 -13.7535 -11.4916 -10.8978
   -10.5256  -9.2718  -8.6907  -8.2348  -8.0937  -8.0348  -7.5633  -6.6628
    -5.9655  -5.8664  -5.4847  -5.2645  -5.0678  -4.7800  -4.3661  -4.0754
    -3.9474  -3.6041  -3.4316  -2.4968  -2.1478  -2.0793  -1.5511  -1.4980
    -1.2464  -0.3611  -0.1828   0.2463   1.9941   2.6333   3.0841   3.2295
     4.9372   5.0675   5.4477   5.5427   5.6579   5.7614   5.9990   6.1041
     6.6099   6.7597   7.1467   7.2941   7.7278   7.8839   8.1422   8.2455
     8.6419   8.9354   9.0406   9.1959   9.4452   9.8243   9.9916  10.6303
    10.7328  10.9135  11.0744  11.3094  11.5990  11.8846  11.9452  12.1522
    12.2378  12.4674  12.6818  12.7212  13.1568  13.3693  13.5500  13.7838
    13.9770  14.1033  14.2812  14.4089  14.5813  14.7407  14.9594  15.0999
    15.1534  15.2664  15.3564  15.7887  15.8630  15.9756  16.2804  16.5721
    16.6436  16.9207  17.0092  17.1299

     the Fermi energy is     0.9576 ev

!    total energy              =    -243.81327219 Ry
     Harris-Foulkes estimate   =    -243.81320147 Ry
     estimated scf accuracy    <       0.00006840 Ry

     The total energy is the sum of the following terms:

     one-electron contribution =    -344.42412547 Ry
     hartree contribution      =     196.37524496 Ry
     xc contribution           =     -93.35628269 Ry
     ewald contribution        =      -2.40810899 Ry
     smearing contrib. (-TS)   =      -0.00000000 Ry

     convergence has been achieved in   7 iterations

     Writing output data file x0.save
 
     init_run     :      0.46s CPU      0.51s WALL (       1 calls)
     electrons    :      2.09s CPU      2.21s WALL (       1 calls)

     Called by init_run:
     wfcinit      :      0.10s CPU      0.12s WALL (       1 calls)
     potinit      :      0.08s CPU      0.08s WALL (       1 calls)

     Called by electrons:
     c_bands      :      1.15s CPU      1.17s WALL (       7 calls)
     sum_band     :      0.44s CPU      0.45s WALL (       7 calls)
     v_of_rho     :      0.23s CPU      0.23s WALL (       8 calls)
     newd         :      0.28s CPU      0.30s WALL (       8 calls)
     mix_rho      :      0.03s CPU      0.03s WALL (       7 calls)

     Called by c_bands:
     init_us_2    :      0.00s CPU      0.00s WALL (      15 calls)
     regterg      :      1.14s CPU      1.16s WALL (       7 calls)

     Called by sum_band:
     sum_band:bec :      0.00s CPU      0.00s WALL (       7 calls)
     addusdens    :      0.30s CPU      0.31s WALL (       7 calls)

     Called by *egterg:
     h_psi        :      0.52s CPU      0.55s WALL (      45 calls)
     s_psi        :      0.01s CPU      0.01s WALL (      45 calls)
     g_psi        :      0.00s CPU      0.00s WALL (      37 calls)
     rdiaghg      :      0.56s CPU      0.57s WALL (      44 calls)

     Called by h_psi:
     h_psi:pot    :      0.52s CPU      0.55s WALL (      45 calls)
     h_psi:calbec :      0.02s CPU      0.02s WALL (      45 calls)
     vloc_psi     :      0.49s CPU      0.51s WALL (      45 calls)
     add_vuspsi   :      0.01s CPU      0.01s WALL (      45 calls)

     General routines
     calbec       :      0.02s CPU      0.03s WALL (      52 calls)
     fft          :      0.24s CPU      0.24s WALL (     124 calls)
     ffts         :      0.01s CPU      0.01s WALL (      15 calls)
     fftw         :      0.51s CPU      0.54s WALL (    2220 calls)
     interpolate  :      0.04s CPU      0.04s WALL (      15 calls)
 
     Parallel routines
     fft_scatt_xy :      0.04s CPU      0.04s WALL (    2359 calls)
     fft_scatt_yz :      0.22s CPU      0.24s WALL (    2359 calls)
 
     PWSCF        :     4.14s CPU         5.49s WALL

 
   This run was terminated on:  18:55:39  22Jun2021            

=------------------------------------------------------------------------------=
   JOB DONE.
=------------------------------------------------------------------------------=
