
     Program PWSCF v.6.2 (svn rev. 14038) starts on 22Jun2021 at 18:54:17 

     This program is part of the open-source Quantum ESPRESSO suite
     for quantum simulation of materials; please cite
         "P. Giannozzi et al., J. Phys.:Condens. Matter 21 395502 (2009);
         "P. Giannozzi et al., J. Phys.:Condens. Matter 29 465901 (2017);
          URL http://www.quantum-espresso.org", 
     in publications or presentations arising from this work. More details at
     http://www.quantum-espresso.org/quote

     Parallel version (MPI), running on    12 processors

     MPI processes distributed on     1 nodes
     R & G space division:  proc/nbgrp/npool/nimage =      12
     Waiting for input...
     Reading input from standard input

     Current dimensions of program PWSCF are:
     Max number of different atomic species (ntypx) = 10
     Max number of k-points (npk) =  40000
     Max angular momentum in pseudopotentials (lmaxx) =  3
               file Ir.pbe-n-rrkjus_psl.0.2.3.UPF: wavefunction(s)  5D renormalized

     gamma-point specific algorithms are used

     Subspace diagonalization in iterative solution of the eigenvalue problem:
     a serial algorithm will be used

 
     Parallelization info
     --------------------
     sticks:   dense  smooth     PW     G-vecs:    dense   smooth      PW
     Min         353     140     34                17398     4383     546
     Max         356     144     36                17404     4390     556
     Sum        4257    1701    421               208801    52635    6619
 


     bravais-lattice index     =            0
     lattice parameter (alat)  =      13.3514  a.u.
     unit-cell volume          =    2380.0325 (a.u.)^3
     number of atoms/cell      =           25
     number of atomic types    =            4
     number of electrons       =        72.00
     number of Kohn-Sham states=          100
     kinetic-energy cutoff     =      30.0000  Ry
     charge density cutoff     =     300.0000  Ry
     convergence threshold     =      1.0E-04
     mixing beta               =       0.3000
     number of iterations used =            8  plain     mixing
     Exchange-correlation      = PBE ( 1  4  3  4 0 0)

     celldm(1)=  13.351425  celldm(2)=   0.000000  celldm(3)=   0.000000
     celldm(4)=   0.000000  celldm(5)=   0.000000  celldm(6)=   0.000000

     crystal axes: (cart. coord. in units of alat)
               a(1) = (   1.000000   0.000000   0.000000 )  
               a(2) = (   0.000000   1.000000   0.000000 )  
               a(3) = (   0.000000   0.000000   1.000000 )  

     reciprocal axes: (cart. coord. in units 2 pi/alat)
               b(1) = (  1.000000  0.000000  0.000000 )  
               b(2) = (  0.000000  1.000000  0.000000 )  
               b(3) = (  0.000000  0.000000  1.000000 )  


     PseudoPot. # 1 for C  read from file:
     /util/academic/espresso/6.2.1/pseudopotentials/upf_files/C.pbe-n-rrkjus_psl.0.1.UPF
     MD5 check sum: ab446d787031eba755f1d5ee46644bb0
     Pseudo is Ultrasoft + core correction, Zval =  4.0
     Generated using "atomic" code by A. Dal Corso v.5.0.2 svn rev. 9415
     Using radial grid of 1073 points,  4 beta functions with: 
                l(1) =   0
                l(2) =   0
                l(3) =   1
                l(4) =   1
     Q(r) pseudized with 0 coefficients 


     PseudoPot. # 2 for H  read from file:
     /util/academic/espresso/6.2.1/pseudopotentials/upf_files/H.pbe-rrkjus_psl.0.1.UPF
     MD5 check sum: bd57da0722753ddfd9833a65b40bb853
     Pseudo is Ultrasoft, Zval =  1.0
     Generated using "atomic" code by A. Dal Corso v.5.0.2 svn rev. 9415
     Using radial grid of  929 points,  2 beta functions with: 
                l(1) =   0
                l(2) =   0
     Q(r) pseudized with 0 coefficients 


     PseudoPot. # 3 for Ir read from file:
     /util/academic/espresso/6.2.1/pseudopotentials/upf_files/Ir.pbe-n-rrkjus_psl.0.2.3.UPF
     MD5 check sum: 0d5bc36db6a0bde07ee800c0d8fcbb77
     Pseudo is Ultrasoft + core correction, Zval =  9.0
     Generated using "atomic" code by A. Dal Corso v.5.0.2 svn rev. 9415
     Using radial grid of 1277 points,  6 beta functions with: 
                l(1) =   0
                l(2) =   0
                l(3) =   1
                l(4) =   1
                l(5) =   2
                l(6) =   2
     Q(r) pseudized with 0 coefficients 


     PseudoPot. # 4 for N  read from file:
     /util/academic/espresso/6.2.1/pseudopotentials/upf_files/N.pbe-n-rrkjus_psl.0.1.UPF
     MD5 check sum: ed8b6a90f28a53b7d71920e7015d2dd6
     Pseudo is Ultrasoft + core correction, Zval =  5.0
     Generated using "atomic" code by A. Dal Corso v.5.0.2 svn rev. 9415
     Using radial grid of 1085 points,  4 beta functions with: 
                l(1) =   0
                l(2) =   0
                l(3) =   1
                l(4) =   1
     Q(r) pseudized with 0 coefficients 


     atomic species   valence    mass     pseudopotential
        C              4.00    12.01000     C ( 1.00)
        H              1.00     1.00700     H ( 1.00)
        Ir             9.00   192.21700     Ir( 1.00)
        N              5.00    14.00600     N ( 1.00)

     No symmetry found



   Cartesian axes

     site n.     atom                  positions (alat units)
         1           Ir  tau(   1) = (  -0.0015830   0.0043522   0.0008508  )
         2           N   tau(   2) = (   0.1308181  -0.2119658  -0.1681189  )
         3           N   tau(   3) = (  -0.2457275  -0.0045596  -0.1649511  )
         4           N   tau(   4) = (   0.1428627   0.2137864  -0.1585301  )
         5           C   tau(   5) = (  -0.0741847   0.2240567   0.1515499  )
         6           C   tau(   6) = (   0.2163477  -0.0480753   0.1611774  )
         7           C   tau(   7) = (   0.2735656  -0.2771435  -0.0753774  )
         8           C   tau(   8) = (   0.3211318  -0.1946182   0.1051001  )
         9           C   tau(   9) = (  -0.1483475  -0.1644359   0.1521119  )
        10           C   tau(  10) = (   0.0816280   0.3756640  -0.0910076  )
        11           C   tau(  11) = (  -0.0072716   0.4000226   0.0876671  )
        12           C   tau(  12) = (  -0.3605844  -0.1351112  -0.1011725  )
        13           C   tau(  13) = (  -0.3055118  -0.2343263   0.0604790  )
        14           H   tau(  14) = (   0.2336589   0.0273691   0.2937120  )
        15           H   tau(  15) = (   0.4257673  -0.2641898   0.1851830  )
        16           H   tau(  16) = (   0.3282301  -0.4058753  -0.1376707  )
        17           H   tau(  17) = (   0.1006918   0.5017386  -0.1748027  )
        18           H   tau(  18) = (  -0.0219294   0.5262645   0.1715911  )
        19           H   tau(  19) = (  -0.1395634   0.2141570   0.2931214  )
        20           H   tau(  20) = (  -0.3472534  -0.3791960   0.0586058  )
        21           H   tau(  21) = (  -0.0942225  -0.2436991   0.2757791  )
        22           H   tau(  22) = (  -0.4998772  -0.1560622  -0.1638154  )
        23           H   tau(  23) = (   0.0917366  -0.2773785  -0.2942157  )
        24           H   tau(  24) = (   0.1925372   0.2168955  -0.2982873  )
        25           H   tau(  25) = (  -0.3179360   0.0909510  -0.2558300  )

     number of k points=     1  gaussian smearing, width (Ry)=  0.0100
                       cart. coord. in units 2pi/alat
        k(    1) = (   0.0000000   0.0000000   0.0000000), wk =   2.0000000

     Dense  grid:   104401 G-vectors     FFT dimensions: (  75,  75,  75)

     Smooth grid:    26318 G-vectors     FFT dimensions: (  48,  48,  48)

     Estimated max dynamical RAM per process >      46.16 MB

     Estimated total dynamical RAM >     553.92 MB

     Check: negative/imaginary core charge=   -0.000002    0.000000

     Initial potential from superposition of free atoms

     starting charge   71.99934, renormalised to   72.00000
     Starting wfc are   69 randomized atomic wfcs +   31 random wfc

     total cpu time spent up to now is        2.4 secs

     Self-consistent Calculation

     iteration #  1     ecut=    30.00 Ry     beta= 0.30
     Davidson diagonalization with overlap
     ethr =  1.00E-02,  avg # of iterations =  5.0

     total cpu time spent up to now is        2.8 secs

     total energy              =    -243.63190507 Ry
     Harris-Foulkes estimate   =    -244.90738823 Ry
     estimated scf accuracy    <       3.36546167 Ry

     iteration #  2     ecut=    30.00 Ry     beta= 0.30
     Davidson diagonalization with overlap
     ethr =  4.67E-03,  avg # of iterations =  1.0

     total cpu time spent up to now is        3.1 secs

     total energy              =    -243.71045508 Ry
     Harris-Foulkes estimate   =    -244.01045335 Ry
     estimated scf accuracy    <       0.83760592 Ry

     iteration #  3     ecut=    30.00 Ry     beta= 0.30
     Davidson diagonalization with overlap
     ethr =  1.16E-03,  avg # of iterations =  4.0

     total cpu time spent up to now is        3.3 secs

     total energy              =    -243.74446168 Ry
     Harris-Foulkes estimate   =    -243.84442701 Ry
     estimated scf accuracy    <       0.31984150 Ry

     iteration #  4     ecut=    30.00 Ry     beta= 0.30
     Davidson diagonalization with overlap
     ethr =  4.44E-04,  avg # of iterations =  3.0

     negative rho (up, down):  2.209E-07 0.000E+00

     total cpu time spent up to now is        3.6 secs

     total energy              =    -243.76492293 Ry
     Harris-Foulkes estimate   =    -243.78292763 Ry
     estimated scf accuracy    <       0.05313641 Ry

     iteration #  5     ecut=    30.00 Ry     beta= 0.30
     Davidson diagonalization with overlap
     ethr =  7.38E-05,  avg # of iterations =  7.0

     negative rho (up, down):  1.003E-07 0.000E+00

     total cpu time spent up to now is        3.9 secs

     total energy              =    -243.77416508 Ry
     Harris-Foulkes estimate   =    -243.77484936 Ry
     estimated scf accuracy    <       0.00439744 Ry

     iteration #  6     ecut=    30.00 Ry     beta= 0.30
     Davidson diagonalization with overlap
     ethr =  6.11E-06,  avg # of iterations =  2.0

     negative rho (up, down):  3.000E-08 0.000E+00

     total cpu time spent up to now is        4.1 secs

     total energy              =    -243.77437485 Ry
     Harris-Foulkes estimate   =    -243.77446470 Ry
     estimated scf accuracy    <       0.00086116 Ry

     iteration #  7     ecut=    30.00 Ry     beta= 0.30
     Davidson diagonalization with overlap
     ethr =  1.20E-06,  avg # of iterations =  2.0

     total cpu time spent up to now is        4.4 secs

     End of self-consistent calculation

          k = 0.0000 0.0000 0.0000 (  3310 PWs)   bands (ev):

   -18.7158 -18.0126 -17.9561 -14.4160 -14.0792 -13.8782 -11.6243 -10.8263
   -10.5404  -9.0985  -8.7005  -8.4805  -8.2075  -8.0293  -7.6658  -6.5140
    -6.2736  -5.9734  -5.6382  -5.3346  -5.1046  -4.8663  -4.4247  -4.1069
    -3.9452  -3.6379  -3.4240  -2.4855  -2.2681  -2.0787  -1.6608  -1.6371
    -1.3122  -0.4624  -0.2527   0.4621   1.9749   2.5318   2.9618   3.1699
     4.8299   5.0199   5.2689   5.5117   5.7210   5.7603   6.0560   6.1135
     6.6863   7.0553   7.1552   7.4005   7.8149   7.9342   8.2422   8.5316
     8.7204   9.0008   9.1968   9.3759   9.6529   9.6817   9.7817  10.7381
    10.8393  10.8913  11.0982  11.1747  11.5089  11.7727  12.0464  12.2177
    12.2682  12.6400  12.7771  12.9071  13.0543  13.4865  13.6481  13.7554
    14.0968  14.1632  14.3577  14.5026  14.8153  14.9835  15.0724  15.1591
    15.2992  15.3103  15.4868  15.7676  15.8176  15.9166  16.2661  16.5293
    16.7093  16.9722  17.1034  17.1190

     the Fermi energy is     1.1911 ev

!    total energy              =    -243.77452598 Ry
     Harris-Foulkes estimate   =    -243.77445973 Ry
     estimated scf accuracy    <       0.00007242 Ry

     The total energy is the sum of the following terms:

     one-electron contribution =    -350.98641400 Ry
     hartree contribution      =     199.66239975 Ry
     xc contribution           =     -93.54883619 Ry
     ewald contribution        =       1.09832446 Ry
     smearing contrib. (-TS)   =      -0.00000000 Ry

     convergence has been achieved in   7 iterations

     Writing output data file x0.save
 
     init_run     :      0.39s CPU      0.44s WALL (       1 calls)
     electrons    :      1.87s CPU      1.98s WALL (       1 calls)

     Called by init_run:
     wfcinit      :      0.03s CPU      0.04s WALL (       1 calls)
     potinit      :      0.07s CPU      0.08s WALL (       1 calls)

     Called by electrons:
     c_bands      :      0.93s CPU      0.96s WALL (       7 calls)
     sum_band     :      0.43s CPU      0.44s WALL (       7 calls)
     v_of_rho     :      0.23s CPU      0.23s WALL (       8 calls)
     newd         :      0.28s CPU      0.30s WALL (       8 calls)
     mix_rho      :      0.03s CPU      0.03s WALL (       7 calls)

     Called by c_bands:
     init_us_2    :      0.00s CPU      0.00s WALL (      15 calls)
     regterg      :      0.92s CPU      0.94s WALL (       7 calls)

     Called by sum_band:
     sum_band:bec :      0.00s CPU      0.00s WALL (       7 calls)
     addusdens    :      0.30s CPU      0.31s WALL (       7 calls)

     Called by *egterg:
     h_psi        :      0.43s CPU      0.45s WALL (      32 calls)
     s_psi        :      0.01s CPU      0.01s WALL (      32 calls)
     g_psi        :      0.00s CPU      0.00s WALL (      24 calls)
     rdiaghg      :      0.39s CPU      0.39s WALL (      31 calls)

     Called by h_psi:
     h_psi:pot    :      0.43s CPU      0.44s WALL (      32 calls)
     h_psi:calbec :      0.02s CPU      0.02s WALL (      32 calls)
     vloc_psi     :      0.40s CPU      0.41s WALL (      32 calls)
     add_vuspsi   :      0.01s CPU      0.01s WALL (      32 calls)

     General routines
     calbec       :      0.02s CPU      0.02s WALL (      39 calls)
     fft          :      0.23s CPU      0.24s WALL (     124 calls)
     ffts         :      0.01s CPU      0.01s WALL (      15 calls)
     fftw         :      0.42s CPU      0.44s WALL (    2190 calls)
     interpolate  :      0.04s CPU      0.04s WALL (      15 calls)
 
     Parallel routines
     fft_scatt_xy :      0.04s CPU      0.04s WALL (    2329 calls)
     fft_scatt_yz :      0.13s CPU      0.13s WALL (    2329 calls)
 
     PWSCF        :     3.82s CPU         5.14s WALL

 
   This run was terminated on:  18:54:22  22Jun2021            

=------------------------------------------------------------------------------=
   JOB DONE.
=------------------------------------------------------------------------------=
