
     Program PWSCF v.6.2 (svn rev. 14038) starts on 22Jun2021 at 18:57:53 

     This program is part of the open-source Quantum ESPRESSO suite
     for quantum simulation of materials; please cite
         "P. Giannozzi et al., J. Phys.:Condens. Matter 21 395502 (2009);
         "P. Giannozzi et al., J. Phys.:Condens. Matter 29 465901 (2017);
          URL http://www.quantum-espresso.org", 
     in publications or presentations arising from this work. More details at
     http://www.quantum-espresso.org/quote

     Parallel version (MPI), running on    12 processors

     MPI processes distributed on     1 nodes
     R & G space division:  proc/nbgrp/npool/nimage =      12
     Waiting for input...
     Reading input from standard input

     Current dimensions of program PWSCF are:
     Max number of different atomic species (ntypx) = 10
     Max number of k-points (npk) =  40000
     Max angular momentum in pseudopotentials (lmaxx) =  3
               file Ir.pbe-n-rrkjus_psl.0.2.3.UPF: wavefunction(s)  5D renormalized

     gamma-point specific algorithms are used

     Subspace diagonalization in iterative solution of the eigenvalue problem:
     a serial algorithm will be used

 
     Parallelization info
     --------------------
     sticks:   dense  smooth     PW     G-vecs:    dense   smooth      PW
     Min         353     140     34                17398     4383     546
     Max         356     144     36                17404     4390     556
     Sum        4257    1701    421               208801    52635    6619
 


     bravais-lattice index     =            0
     lattice parameter (alat)  =      13.3514  a.u.
     unit-cell volume          =    2380.0325 (a.u.)^3
     number of atoms/cell      =           25
     number of atomic types    =            4
     number of electrons       =        72.00
     number of Kohn-Sham states=          100
     kinetic-energy cutoff     =      30.0000  Ry
     charge density cutoff     =     300.0000  Ry
     convergence threshold     =      1.0E-04
     mixing beta               =       0.3000
     number of iterations used =            8  plain     mixing
     Exchange-correlation      = PBE ( 1  4  3  4 0 0)

     celldm(1)=  13.351425  celldm(2)=   0.000000  celldm(3)=   0.000000
     celldm(4)=   0.000000  celldm(5)=   0.000000  celldm(6)=   0.000000

     crystal axes: (cart. coord. in units of alat)
               a(1) = (   1.000000   0.000000   0.000000 )  
               a(2) = (   0.000000   1.000000   0.000000 )  
               a(3) = (   0.000000   0.000000   1.000000 )  

     reciprocal axes: (cart. coord. in units 2 pi/alat)
               b(1) = (  1.000000  0.000000  0.000000 )  
               b(2) = (  0.000000  1.000000  0.000000 )  
               b(3) = (  0.000000  0.000000  1.000000 )  


     PseudoPot. # 1 for C  read from file:
     /util/academic/espresso/6.2.1/pseudopotentials/upf_files/C.pbe-n-rrkjus_psl.0.1.UPF
     MD5 check sum: ab446d787031eba755f1d5ee46644bb0
     Pseudo is Ultrasoft + core correction, Zval =  4.0
     Generated using "atomic" code by A. Dal Corso v.5.0.2 svn rev. 9415
     Using radial grid of 1073 points,  4 beta functions with: 
                l(1) =   0
                l(2) =   0
                l(3) =   1
                l(4) =   1
     Q(r) pseudized with 0 coefficients 


     PseudoPot. # 2 for H  read from file:
     /util/academic/espresso/6.2.1/pseudopotentials/upf_files/H.pbe-rrkjus_psl.0.1.UPF
     MD5 check sum: bd57da0722753ddfd9833a65b40bb853
     Pseudo is Ultrasoft, Zval =  1.0
     Generated using "atomic" code by A. Dal Corso v.5.0.2 svn rev. 9415
     Using radial grid of  929 points,  2 beta functions with: 
                l(1) =   0
                l(2) =   0
     Q(r) pseudized with 0 coefficients 


     PseudoPot. # 3 for Ir read from file:
     /util/academic/espresso/6.2.1/pseudopotentials/upf_files/Ir.pbe-n-rrkjus_psl.0.2.3.UPF
     MD5 check sum: 0d5bc36db6a0bde07ee800c0d8fcbb77
     Pseudo is Ultrasoft + core correction, Zval =  9.0
     Generated using "atomic" code by A. Dal Corso v.5.0.2 svn rev. 9415
     Using radial grid of 1277 points,  6 beta functions with: 
                l(1) =   0
                l(2) =   0
                l(3) =   1
                l(4) =   1
                l(5) =   2
                l(6) =   2
     Q(r) pseudized with 0 coefficients 


     PseudoPot. # 4 for N  read from file:
     /util/academic/espresso/6.2.1/pseudopotentials/upf_files/N.pbe-n-rrkjus_psl.0.1.UPF
     MD5 check sum: ed8b6a90f28a53b7d71920e7015d2dd6
     Pseudo is Ultrasoft + core correction, Zval =  5.0
     Generated using "atomic" code by A. Dal Corso v.5.0.2 svn rev. 9415
     Using radial grid of 1085 points,  4 beta functions with: 
                l(1) =   0
                l(2) =   0
                l(3) =   1
                l(4) =   1
     Q(r) pseudized with 0 coefficients 


     atomic species   valence    mass     pseudopotential
        C              4.00    12.01000     C ( 1.00)
        H              1.00     1.00700     H ( 1.00)
        Ir             9.00   192.21700     Ir( 1.00)
        N              5.00    14.00600     N ( 1.00)

     No symmetry found



   Cartesian axes

     site n.     atom                  positions (alat units)
         1           Ir  tau(   1) = (  -0.0004754   0.0044516   0.0019635  )
         2           N   tau(   2) = (   0.1606174  -0.1845719  -0.1564508  )
         3           N   tau(   3) = (  -0.2354681   0.0029039  -0.1711859  )
         4           N   tau(   4) = (   0.1071124   0.2161328  -0.1721374  )
         5           C   tau(   5) = (  -0.0798202   0.2273914   0.1503374  )
         6           C   tau(   6) = (   0.2170043  -0.0542321   0.1799966  )
         7           C   tau(   7) = (   0.2852554  -0.2811408  -0.0499206  )
         8           C   tau(   8) = (   0.3146292  -0.2135634   0.1321171  )
         9           C   tau(   9) = (  -0.1527468  -0.1807246   0.1318008  )
        10           C   tau(  10) = (   0.0748841   0.3833685  -0.0985558  )
        11           C   tau(  11) = (  -0.0104785   0.3919332   0.0872270  )
        12           C   tau(  12) = (  -0.3584415  -0.1378591  -0.1233809  )
        13           C   tau(  13) = (  -0.3183012  -0.2361846   0.0399009  )
        14           H   tau(  14) = (   0.2500492   0.0169652   0.3091950  )
        15           H   tau(  15) = (   0.4149015  -0.2773791   0.2298084  )
        16           H   tau(  16) = (   0.3713110  -0.3969826  -0.0991825  )
        17           H   tau(  17) = (   0.0751387   0.5002144  -0.1821799  )
        18           H   tau(  18) = (  -0.0109452   0.5298513   0.1456408  )
        19           H   tau(  19) = (  -0.1600792   0.2203913   0.2760412  )
        20           H   tau(  20) = (  -0.3955336  -0.3800611   0.0568023  )
        21           H   tau(  21) = (  -0.1209396  -0.2330474   0.2746242  )
        22           H   tau(  22) = (  -0.4582992  -0.1736816  -0.2337747  )
        23           H   tau(  23) = (   0.1316190  -0.2149084  -0.3012707  )
        24           H   tau(  24) = (   0.1406482   0.2059867  -0.3107848  )
        25           H   tau(  25) = (  -0.2617377   0.0782789  -0.2982750  )

     number of k points=     1  gaussian smearing, width (Ry)=  0.0100
                       cart. coord. in units 2pi/alat
        k(    1) = (   0.0000000   0.0000000   0.0000000), wk =   2.0000000

     Dense  grid:   104401 G-vectors     FFT dimensions: (  75,  75,  75)

     Smooth grid:    26318 G-vectors     FFT dimensions: (  48,  48,  48)

     Estimated max dynamical RAM per process >      46.16 MB

     Estimated total dynamical RAM >     553.92 MB

     Check: negative/imaginary core charge=   -0.000002    0.000000

     Initial potential from superposition of free atoms

     starting charge   71.99934, renormalised to   72.00000
     Starting wfc are   69 randomized atomic wfcs +   31 random wfc

     total cpu time spent up to now is        2.6 secs

     Self-consistent Calculation

     iteration #  1     ecut=    30.00 Ry     beta= 0.30
     Davidson diagonalization with overlap
     ethr =  1.00E-02,  avg # of iterations =  5.0

     total cpu time spent up to now is        2.9 secs

     total energy              =    -243.63832422 Ry
     Harris-Foulkes estimate   =    -244.97368292 Ry
     estimated scf accuracy    <       3.48670814 Ry

     iteration #  2     ecut=    30.00 Ry     beta= 0.30
     Davidson diagonalization with overlap
     ethr =  4.84E-03,  avg # of iterations =  1.0

     total cpu time spent up to now is        3.2 secs

     total energy              =    -243.75531497 Ry
     Harris-Foulkes estimate   =    -244.08572460 Ry
     estimated scf accuracy    <       0.95229842 Ry

     iteration #  3     ecut=    30.00 Ry     beta= 0.30
     Davidson diagonalization with overlap
     ethr =  1.32E-03,  avg # of iterations =  4.0

     total cpu time spent up to now is        3.4 secs

     total energy              =    -243.79625486 Ry
     Harris-Foulkes estimate   =    -243.90797210 Ry
     estimated scf accuracy    <       0.34925728 Ry

     iteration #  4     ecut=    30.00 Ry     beta= 0.30
     Davidson diagonalization with overlap
     ethr =  4.85E-04,  avg # of iterations =  3.0

     negative rho (up, down):  2.371E-07 0.000E+00

     total cpu time spent up to now is        3.7 secs

     total energy              =    -243.81907170 Ry
     Harris-Foulkes estimate   =    -243.83730298 Ry
     estimated scf accuracy    <       0.05436297 Ry

     iteration #  5     ecut=    30.00 Ry     beta= 0.30
     Davidson diagonalization with overlap
     ethr =  7.55E-05,  avg # of iterations =  7.0

     negative rho (up, down):  4.174E-07 0.000E+00

     total cpu time spent up to now is        4.0 secs

     total energy              =    -243.82790732 Ry
     Harris-Foulkes estimate   =    -243.82898070 Ry
     estimated scf accuracy    <       0.00553519 Ry

     iteration #  6     ecut=    30.00 Ry     beta= 0.30
     Davidson diagonalization with overlap
     ethr =  7.69E-06,  avg # of iterations =  2.0

     negative rho (up, down):  2.361E-07 0.000E+00

     total cpu time spent up to now is        4.2 secs

     total energy              =    -243.82822816 Ry
     Harris-Foulkes estimate   =    -243.82833167 Ry
     estimated scf accuracy    <       0.00096893 Ry

     iteration #  7     ecut=    30.00 Ry     beta= 0.30
     Davidson diagonalization with overlap
     ethr =  1.35E-06,  avg # of iterations =  2.0

     negative rho (up, down):  4.803E-08 0.000E+00

     total cpu time spent up to now is        4.5 secs

     total energy              =    -243.82832463 Ry
     Harris-Foulkes estimate   =    -243.82831846 Ry
     estimated scf accuracy    <       0.00016447 Ry

     iteration #  8     ecut=    30.00 Ry     beta= 0.30
     Davidson diagonalization with overlap
     ethr =  2.28E-07,  avg # of iterations =  3.0

     total cpu time spent up to now is        4.7 secs

     End of self-consistent calculation

          k = 0.0000 0.0000 0.0000 (  3310 PWs)   bands (ev):

   -18.2366 -17.9175 -17.4578 -14.3078 -14.1563 -13.7866 -11.6955 -11.0353
   -10.6659  -9.0157  -8.6685  -8.4508  -8.2589  -7.9561  -7.8153  -6.4187
    -5.9899  -5.6789  -5.5641  -5.2347  -5.0429  -4.6801  -4.4045  -4.2239
    -4.0943  -3.9178  -3.4589  -2.4505  -2.4087  -2.0475  -1.7109  -1.4515
    -1.1516  -0.5362  -0.2660   0.2815   1.9436   2.5152   3.0564   3.1369
     4.8096   4.9695   5.3439   5.5098   5.6124   5.8452   5.9892   6.2655
     6.6584   6.9271   7.0218   7.5096   7.7328   7.9310   8.2114   8.4886
     8.6084   8.7561   9.1659   9.3116   9.5241   9.8821  10.2279  10.5115
    10.8378  11.0262  11.1931  11.2638  11.5857  11.7826  11.9460  12.2513
    12.3497  12.5821  12.8407  12.8667  13.0333  13.1797  13.6228  13.8118
    14.0146  14.2040  14.3243  14.5092  14.5929  14.7343  14.8343  14.8977
    15.2439  15.4540  15.6060  15.8027  15.8921  16.0412  16.1590  16.3773
    16.6803  16.8593  16.9254  17.0675

     the Fermi energy is     1.0958 ev

!    total energy              =    -243.82839562 Ry
     Harris-Foulkes estimate   =    -243.82836027 Ry
     estimated scf accuracy    <       0.00002682 Ry

     The total energy is the sum of the following terms:

     one-electron contribution =    -342.77197274 Ry
     hartree contribution      =     195.59290869 Ry
     xc contribution           =     -93.41745879 Ry
     ewald contribution        =      -3.23187279 Ry
     smearing contrib. (-TS)   =      -0.00000000 Ry

     convergence has been achieved in   8 iterations

     Writing output data file x0.save
 
     init_run     :      0.40s CPU      0.45s WALL (       1 calls)
     electrons    :      2.09s CPU      2.20s WALL (       1 calls)

     Called by init_run:
     wfcinit      :      0.03s CPU      0.04s WALL (       1 calls)
     potinit      :      0.08s CPU      0.08s WALL (       1 calls)

     Called by electrons:
     c_bands      :      1.04s CPU      1.06s WALL (       8 calls)
     sum_band     :      0.49s CPU      0.50s WALL (       8 calls)
     v_of_rho     :      0.25s CPU      0.26s WALL (       9 calls)
     newd         :      0.31s CPU      0.33s WALL (       9 calls)
     mix_rho      :      0.03s CPU      0.03s WALL (       8 calls)

     Called by c_bands:
     init_us_2    :      0.00s CPU      0.01s WALL (      17 calls)
     regterg      :      1.03s CPU      1.05s WALL (       8 calls)

     Called by sum_band:
     sum_band:bec :      0.00s CPU      0.00s WALL (       8 calls)
     addusdens    :      0.34s CPU      0.35s WALL (       8 calls)

     Called by *egterg:
     h_psi        :      0.48s CPU      0.49s WALL (      36 calls)
     s_psi        :      0.01s CPU      0.01s WALL (      36 calls)
     g_psi        :      0.00s CPU      0.00s WALL (      27 calls)
     rdiaghg      :      0.43s CPU      0.44s WALL (      35 calls)

     Called by h_psi:
     h_psi:pot    :      0.48s CPU      0.49s WALL (      36 calls)
     h_psi:calbec :      0.02s CPU      0.02s WALL (      36 calls)
     vloc_psi     :      0.45s CPU      0.46s WALL (      36 calls)
     add_vuspsi   :      0.01s CPU      0.01s WALL (      36 calls)

     General routines
     calbec       :      0.03s CPU      0.03s WALL (      44 calls)
     fft          :      0.27s CPU      0.27s WALL (     140 calls)
     ffts         :      0.01s CPU      0.01s WALL (      17 calls)
     fftw         :      0.47s CPU      0.49s WALL (    2454 calls)
     interpolate  :      0.04s CPU      0.04s WALL (      17 calls)
 
     Parallel routines
     fft_scatt_xy :      0.04s CPU      0.04s WALL (    2611 calls)
     fft_scatt_yz :      0.14s CPU      0.15s WALL (    2611 calls)
 
     PWSCF        :     4.04s CPU         5.42s WALL

 
   This run was terminated on:  18:57:59  22Jun2021            

=------------------------------------------------------------------------------=
   JOB DONE.
=------------------------------------------------------------------------------=
