
     Program PWSCF v.6.2 (svn rev. 14038) starts on 22Jun2021 at 18:59:48 

     This program is part of the open-source Quantum ESPRESSO suite
     for quantum simulation of materials; please cite
         "P. Giannozzi et al., J. Phys.:Condens. Matter 21 395502 (2009);
         "P. Giannozzi et al., J. Phys.:Condens. Matter 29 465901 (2017);
          URL http://www.quantum-espresso.org", 
     in publications or presentations arising from this work. More details at
     http://www.quantum-espresso.org/quote

     Parallel version (MPI), running on    12 processors

     MPI processes distributed on     1 nodes
     R & G space division:  proc/nbgrp/npool/nimage =      12
     Waiting for input...
     Reading input from standard input

     Current dimensions of program PWSCF are:
     Max number of different atomic species (ntypx) = 10
     Max number of k-points (npk) =  40000
     Max angular momentum in pseudopotentials (lmaxx) =  3
               file Ir.pbe-n-rrkjus_psl.0.2.3.UPF: wavefunction(s)  5D renormalized

     gamma-point specific algorithms are used

     Subspace diagonalization in iterative solution of the eigenvalue problem:
     a serial algorithm will be used

 
     Parallelization info
     --------------------
     sticks:   dense  smooth     PW     G-vecs:    dense   smooth      PW
     Min         353     140     34                17398     4383     546
     Max         356     144     36                17404     4390     556
     Sum        4257    1701    421               208801    52635    6619
 


     bravais-lattice index     =            0
     lattice parameter (alat)  =      13.3514  a.u.
     unit-cell volume          =    2380.0325 (a.u.)^3
     number of atoms/cell      =           25
     number of atomic types    =            4
     number of electrons       =        72.00
     number of Kohn-Sham states=          100
     kinetic-energy cutoff     =      30.0000  Ry
     charge density cutoff     =     300.0000  Ry
     convergence threshold     =      1.0E-04
     mixing beta               =       0.3000
     number of iterations used =            8  plain     mixing
     Exchange-correlation      = PBE ( 1  4  3  4 0 0)

     celldm(1)=  13.351425  celldm(2)=   0.000000  celldm(3)=   0.000000
     celldm(4)=   0.000000  celldm(5)=   0.000000  celldm(6)=   0.000000

     crystal axes: (cart. coord. in units of alat)
               a(1) = (   1.000000   0.000000   0.000000 )  
               a(2) = (   0.000000   1.000000   0.000000 )  
               a(3) = (   0.000000   0.000000   1.000000 )  

     reciprocal axes: (cart. coord. in units 2 pi/alat)
               b(1) = (  1.000000  0.000000  0.000000 )  
               b(2) = (  0.000000  1.000000  0.000000 )  
               b(3) = (  0.000000  0.000000  1.000000 )  


     PseudoPot. # 1 for C  read from file:
     /util/academic/espresso/6.2.1/pseudopotentials/upf_files/C.pbe-n-rrkjus_psl.0.1.UPF
     MD5 check sum: ab446d787031eba755f1d5ee46644bb0
     Pseudo is Ultrasoft + core correction, Zval =  4.0
     Generated using "atomic" code by A. Dal Corso v.5.0.2 svn rev. 9415
     Using radial grid of 1073 points,  4 beta functions with: 
                l(1) =   0
                l(2) =   0
                l(3) =   1
                l(4) =   1
     Q(r) pseudized with 0 coefficients 


     PseudoPot. # 2 for H  read from file:
     /util/academic/espresso/6.2.1/pseudopotentials/upf_files/H.pbe-rrkjus_psl.0.1.UPF
     MD5 check sum: bd57da0722753ddfd9833a65b40bb853
     Pseudo is Ultrasoft, Zval =  1.0
     Generated using "atomic" code by A. Dal Corso v.5.0.2 svn rev. 9415
     Using radial grid of  929 points,  2 beta functions with: 
                l(1) =   0
                l(2) =   0
     Q(r) pseudized with 0 coefficients 


     PseudoPot. # 3 for Ir read from file:
     /util/academic/espresso/6.2.1/pseudopotentials/upf_files/Ir.pbe-n-rrkjus_psl.0.2.3.UPF
     MD5 check sum: 0d5bc36db6a0bde07ee800c0d8fcbb77
     Pseudo is Ultrasoft + core correction, Zval =  9.0
     Generated using "atomic" code by A. Dal Corso v.5.0.2 svn rev. 9415
     Using radial grid of 1277 points,  6 beta functions with: 
                l(1) =   0
                l(2) =   0
                l(3) =   1
                l(4) =   1
                l(5) =   2
                l(6) =   2
     Q(r) pseudized with 0 coefficients 


     PseudoPot. # 4 for N  read from file:
     /util/academic/espresso/6.2.1/pseudopotentials/upf_files/N.pbe-n-rrkjus_psl.0.1.UPF
     MD5 check sum: ed8b6a90f28a53b7d71920e7015d2dd6
     Pseudo is Ultrasoft + core correction, Zval =  5.0
     Generated using "atomic" code by A. Dal Corso v.5.0.2 svn rev. 9415
     Using radial grid of 1085 points,  4 beta functions with: 
                l(1) =   0
                l(2) =   0
                l(3) =   1
                l(4) =   1
     Q(r) pseudized with 0 coefficients 


     atomic species   valence    mass     pseudopotential
        C              4.00    12.01000     C ( 1.00)
        H              1.00     1.00700     H ( 1.00)
        Ir             9.00   192.21700     Ir( 1.00)
        N              5.00    14.00600     N ( 1.00)

     No symmetry found



   Cartesian axes

     site n.     atom                  positions (alat units)
         1           Ir  tau(   1) = (   0.0004947   0.0061383   0.0036704  )
         2           N   tau(   2) = (   0.1751408  -0.1894457  -0.1578729  )
         3           N   tau(   3) = (  -0.2296960   0.0087952  -0.1851548  )
         4           N   tau(   4) = (   0.1044682   0.2191726  -0.1659284  )
         5           C   tau(   5) = (  -0.0919767   0.2226737   0.1589197  )
         6           C   tau(   6) = (   0.2116516  -0.0544613   0.1882617  )
         7           C   tau(   7) = (   0.2898606  -0.2810987  -0.0432675  )
         8           C   tau(   8) = (   0.3015198  -0.2174686   0.1481604  )
         9           C   tau(   9) = (  -0.1541627  -0.1979721   0.1208585  )
        10           C   tau(  10) = (   0.0640118   0.3892094  -0.0981124  )
        11           C   tau(  11) = (  -0.0258566   0.3955525   0.0855557  )
        12           C   tau(  12) = (  -0.3442349  -0.1351524  -0.1462321  )
        13           C   tau(  13) = (  -0.3086657  -0.2510027   0.0175744  )
        14           H   tau(  14) = (   0.2491190   0.0019227   0.3327760  )
        15           H   tau(  15) = (   0.4067230  -0.2853334   0.2356226  )
        16           H   tau(  16) = (   0.3699453  -0.4084385  -0.1025880  )
        17           H   tau(  17) = (   0.0739927   0.5047029  -0.1911125  )
        18           H   tau(  18) = (  -0.0221770   0.5313372   0.1547650  )
        19           H   tau(  19) = (  -0.1833177   0.2334550   0.2846369  )
        20           H   tau(  20) = (  -0.4148093  -0.3631045   0.0462937  )
        21           H   tau(  21) = (  -0.1169294  -0.2531410   0.2627370  )
        22           H   tau(  22) = (  -0.4757524  -0.1669909  -0.2239821  )
        23           H   tau(  23) = (   0.1336437  -0.2381239  -0.2874593  )
        24           H   tau(  24) = (   0.1317852   0.2095221  -0.3140684  )
        25           H   tau(  25) = (  -0.2509160   0.0738297  -0.3167334  )

     number of k points=     1  gaussian smearing, width (Ry)=  0.0100
                       cart. coord. in units 2pi/alat
        k(    1) = (   0.0000000   0.0000000   0.0000000), wk =   2.0000000

     Dense  grid:   104401 G-vectors     FFT dimensions: (  75,  75,  75)

     Smooth grid:    26318 G-vectors     FFT dimensions: (  48,  48,  48)

     Estimated max dynamical RAM per process >      46.16 MB

     Estimated total dynamical RAM >     553.92 MB

     Check: negative/imaginary core charge=   -0.000002    0.000000

     Initial potential from superposition of free atoms

     starting charge   71.99934, renormalised to   72.00000
     Starting wfc are   69 randomized atomic wfcs +   31 random wfc

     total cpu time spent up to now is        2.4 secs

     Self-consistent Calculation

     iteration #  1     ecut=    30.00 Ry     beta= 0.30
     Davidson diagonalization with overlap
     ethr =  1.00E-02,  avg # of iterations =  5.0

     total cpu time spent up to now is        2.8 secs

     total energy              =    -243.66696604 Ry
     Harris-Foulkes estimate   =    -244.91923391 Ry
     estimated scf accuracy    <       3.28168675 Ry

     iteration #  2     ecut=    30.00 Ry     beta= 0.30
     Davidson diagonalization with overlap
     ethr =  4.56E-03,  avg # of iterations =  1.0

     total cpu time spent up to now is        3.0 secs

     total energy              =    -243.78311480 Ry
     Harris-Foulkes estimate   =    -244.09030035 Ry
     estimated scf accuracy    <       0.89143673 Ry

     iteration #  3     ecut=    30.00 Ry     beta= 0.30
     Davidson diagonalization with overlap
     ethr =  1.24E-03,  avg # of iterations =  3.0

     total cpu time spent up to now is        3.2 secs

     total energy              =    -243.82126921 Ry
     Harris-Foulkes estimate   =    -243.92740336 Ry
     estimated scf accuracy    <       0.34047031 Ry

     iteration #  4     ecut=    30.00 Ry     beta= 0.30
     Davidson diagonalization with overlap
     ethr =  4.73E-04,  avg # of iterations =  3.0

     negative rho (up, down):  1.130E-07 0.000E+00

     total cpu time spent up to now is        3.4 secs

     total energy              =    -243.84429774 Ry
     Harris-Foulkes estimate   =    -243.86221374 Ry
     estimated scf accuracy    <       0.05443800 Ry

     iteration #  5     ecut=    30.00 Ry     beta= 0.30
     Davidson diagonalization with overlap
     ethr =  7.56E-05,  avg # of iterations =  7.0

     negative rho (up, down):  2.327E-07 0.000E+00

     total cpu time spent up to now is        3.7 secs

     total energy              =    -243.85284882 Ry
     Harris-Foulkes estimate   =    -243.85381439 Ry
     estimated scf accuracy    <       0.00534608 Ry

     iteration #  6     ecut=    30.00 Ry     beta= 0.30
     Davidson diagonalization with overlap
     ethr =  7.43E-06,  avg # of iterations =  2.0

     negative rho (up, down):  1.671E-07 0.000E+00

     total cpu time spent up to now is        3.9 secs

     total energy              =    -243.85318769 Ry
     Harris-Foulkes estimate   =    -243.85326755 Ry
     estimated scf accuracy    <       0.00085332 Ry

     iteration #  7     ecut=    30.00 Ry     beta= 0.30
     Davidson diagonalization with overlap
     ethr =  1.19E-06,  avg # of iterations =  3.0

     total cpu time spent up to now is        4.2 secs

     End of self-consistent calculation

          k = 0.0000 0.0000 0.0000 (  3310 PWs)   bands (ev):

   -18.2677 -17.8792 -17.7437 -14.3564 -13.9454 -13.7183 -11.4828 -10.8501
   -10.6355  -9.0937  -8.4170  -8.3458  -8.2661  -7.9091  -7.6562  -6.3844
    -5.9507  -5.6427  -5.4079  -5.1757  -4.9960  -4.7811  -4.1511  -3.9903
    -3.9365  -3.7233  -3.6812  -2.3866  -2.2205  -2.1191  -1.7434  -1.6383
    -1.2621  -0.4093  -0.2813   0.0747   1.9702   2.4764   2.9849   3.1522
     4.5951   5.0114   5.2389   5.3480   5.5416   5.6482   5.9196   6.1902
     6.4492   6.6420   6.9171   7.4749   7.6798   7.8068   8.1896   8.3550
     8.4786   8.7133   9.1755   9.2989   9.7034   9.9936  10.1757  10.4885
    10.7038  11.0159  11.0868  11.2926  11.4188  11.6312  11.8829  12.2227
    12.3820  12.4941  12.6638  12.7960  12.9720  13.0380  13.4657  13.7024
    13.8550  14.0400  14.2617  14.3378  14.4990  14.5803  14.6429  14.8589
    15.0393  15.3235  15.3489  15.7311  15.8927  16.0423  16.1863  16.2706
    16.5127  16.7914  16.9208  16.9909

     the Fermi energy is     1.0399 ev

!    total energy              =    -243.85332326 Ry
     Harris-Foulkes estimate   =    -243.85327517 Ry
     estimated scf accuracy    <       0.00009851 Ry

     The total energy is the sum of the following terms:

     one-electron contribution =    -330.83829575 Ry
     hartree contribution      =     189.49638998 Ry
     xc contribution           =     -93.09776738 Ry
     ewald contribution        =      -9.41365011 Ry
     smearing contrib. (-TS)   =      -0.00000000 Ry

     convergence has been achieved in   7 iterations

     Writing output data file x0.save
 
     init_run     :      0.37s CPU      0.66s WALL (       1 calls)
     electrons    :      1.70s CPU      1.80s WALL (       1 calls)

     Called by init_run:
     wfcinit      :      0.04s CPU      0.05s WALL (       1 calls)
     potinit      :      0.07s CPU      0.07s WALL (       1 calls)

     Called by electrons:
     c_bands      :      0.83s CPU      0.86s WALL (       7 calls)
     sum_band     :      0.40s CPU      0.41s WALL (       7 calls)
     v_of_rho     :      0.21s CPU      0.22s WALL (       8 calls)
     newd         :      0.27s CPU      0.53s WALL (       8 calls)
     mix_rho      :      0.02s CPU      0.02s WALL (       7 calls)

     Called by c_bands:
     init_us_2    :      0.00s CPU      0.00s WALL (      15 calls)
     regterg      :      0.82s CPU      0.84s WALL (       7 calls)

     Called by sum_band:
     sum_band:bec :      0.00s CPU      0.00s WALL (       7 calls)
     addusdens    :      0.27s CPU      0.28s WALL (       7 calls)

     Called by *egterg:
     h_psi        :      0.42s CPU      0.44s WALL (      32 calls)
     s_psi        :      0.01s CPU      0.01s WALL (      32 calls)
     g_psi        :      0.00s CPU      0.00s WALL (      24 calls)
     rdiaghg      :      0.33s CPU      0.33s WALL (      31 calls)

     Called by h_psi:
     h_psi:pot    :      0.42s CPU      0.44s WALL (      32 calls)
     h_psi:calbec :      0.02s CPU      0.02s WALL (      32 calls)
     vloc_psi     :      0.39s CPU      0.41s WALL (      32 calls)
     add_vuspsi   :      0.01s CPU      0.01s WALL (      32 calls)

     General routines
     calbec       :      0.02s CPU      0.02s WALL (      39 calls)
     fft          :      0.33s CPU      0.34s WALL (     124 calls)
     ffts         :      0.01s CPU      0.01s WALL (      15 calls)
     fftw         :      0.43s CPU      0.44s WALL (    2172 calls)
     interpolate  :      0.03s CPU      0.03s WALL (      15 calls)
 
     Parallel routines
     fft_scatt_xy :      0.03s CPU      0.04s WALL (    2311 calls)
     fft_scatt_yz :      0.31s CPU      0.32s WALL (    2311 calls)
 
     PWSCF        :     3.59s CPU         4.69s WALL

 
   This run was terminated on:  18:59:52  22Jun2021            

=------------------------------------------------------------------------------=
   JOB DONE.
=------------------------------------------------------------------------------=
