
     Program PWSCF v.6.2 (svn rev. 14038) starts on 22Jun2021 at 18:55:17 

     This program is part of the open-source Quantum ESPRESSO suite
     for quantum simulation of materials; please cite
         "P. Giannozzi et al., J. Phys.:Condens. Matter 21 395502 (2009);
         "P. Giannozzi et al., J. Phys.:Condens. Matter 29 465901 (2017);
          URL http://www.quantum-espresso.org", 
     in publications or presentations arising from this work. More details at
     http://www.quantum-espresso.org/quote

     Parallel version (MPI), running on    12 processors

     MPI processes distributed on     1 nodes
     R & G space division:  proc/nbgrp/npool/nimage =      12
     Waiting for input...
     Reading input from standard input

     Current dimensions of program PWSCF are:
     Max number of different atomic species (ntypx) = 10
     Max number of k-points (npk) =  40000
     Max angular momentum in pseudopotentials (lmaxx) =  3
               file Ir.pbe-n-rrkjus_psl.0.2.3.UPF: wavefunction(s)  5D renormalized

     gamma-point specific algorithms are used

     Subspace diagonalization in iterative solution of the eigenvalue problem:
     a serial algorithm will be used

 
     Parallelization info
     --------------------
     sticks:   dense  smooth     PW     G-vecs:    dense   smooth      PW
     Min         353     140     34                17398     4383     546
     Max         356     144     36                17404     4390     556
     Sum        4257    1701    421               208801    52635    6619
 


     bravais-lattice index     =            0
     lattice parameter (alat)  =      13.3514  a.u.
     unit-cell volume          =    2380.0325 (a.u.)^3
     number of atoms/cell      =           25
     number of atomic types    =            4
     number of electrons       =        72.00
     number of Kohn-Sham states=          100
     kinetic-energy cutoff     =      30.0000  Ry
     charge density cutoff     =     300.0000  Ry
     convergence threshold     =      1.0E-04
     mixing beta               =       0.3000
     number of iterations used =            8  plain     mixing
     Exchange-correlation      = PBE ( 1  4  3  4 0 0)

     celldm(1)=  13.351425  celldm(2)=   0.000000  celldm(3)=   0.000000
     celldm(4)=   0.000000  celldm(5)=   0.000000  celldm(6)=   0.000000

     crystal axes: (cart. coord. in units of alat)
               a(1) = (   1.000000   0.000000   0.000000 )  
               a(2) = (   0.000000   1.000000   0.000000 )  
               a(3) = (   0.000000   0.000000   1.000000 )  

     reciprocal axes: (cart. coord. in units 2 pi/alat)
               b(1) = (  1.000000  0.000000  0.000000 )  
               b(2) = (  0.000000  1.000000  0.000000 )  
               b(3) = (  0.000000  0.000000  1.000000 )  


     PseudoPot. # 1 for C  read from file:
     /util/academic/espresso/6.2.1/pseudopotentials/upf_files/C.pbe-n-rrkjus_psl.0.1.UPF
     MD5 check sum: ab446d787031eba755f1d5ee46644bb0
     Pseudo is Ultrasoft + core correction, Zval =  4.0
     Generated using "atomic" code by A. Dal Corso v.5.0.2 svn rev. 9415
     Using radial grid of 1073 points,  4 beta functions with: 
                l(1) =   0
                l(2) =   0
                l(3) =   1
                l(4) =   1
     Q(r) pseudized with 0 coefficients 


     PseudoPot. # 2 for H  read from file:
     /util/academic/espresso/6.2.1/pseudopotentials/upf_files/H.pbe-rrkjus_psl.0.1.UPF
     MD5 check sum: bd57da0722753ddfd9833a65b40bb853
     Pseudo is Ultrasoft, Zval =  1.0
     Generated using "atomic" code by A. Dal Corso v.5.0.2 svn rev. 9415
     Using radial grid of  929 points,  2 beta functions with: 
                l(1) =   0
                l(2) =   0
     Q(r) pseudized with 0 coefficients 


     PseudoPot. # 3 for Ir read from file:
     /util/academic/espresso/6.2.1/pseudopotentials/upf_files/Ir.pbe-n-rrkjus_psl.0.2.3.UPF
     MD5 check sum: 0d5bc36db6a0bde07ee800c0d8fcbb77
     Pseudo is Ultrasoft + core correction, Zval =  9.0
     Generated using "atomic" code by A. Dal Corso v.5.0.2 svn rev. 9415
     Using radial grid of 1277 points,  6 beta functions with: 
                l(1) =   0
                l(2) =   0
                l(3) =   1
                l(4) =   1
                l(5) =   2
                l(6) =   2
     Q(r) pseudized with 0 coefficients 


     PseudoPot. # 4 for N  read from file:
     /util/academic/espresso/6.2.1/pseudopotentials/upf_files/N.pbe-n-rrkjus_psl.0.1.UPF
     MD5 check sum: ed8b6a90f28a53b7d71920e7015d2dd6
     Pseudo is Ultrasoft + core correction, Zval =  5.0
     Generated using "atomic" code by A. Dal Corso v.5.0.2 svn rev. 9415
     Using radial grid of 1085 points,  4 beta functions with: 
                l(1) =   0
                l(2) =   0
                l(3) =   1
                l(4) =   1
     Q(r) pseudized with 0 coefficients 


     atomic species   valence    mass     pseudopotential
        C              4.00    12.01000     C ( 1.00)
        H              1.00     1.00700     H ( 1.00)
        Ir             9.00   192.21700     Ir( 1.00)
        N              5.00    14.00600     N ( 1.00)

     No symmetry found



   Cartesian axes

     site n.     atom                  positions (alat units)
         1           Ir  tau(   1) = (  -0.0014955   0.0044841   0.0012834  )
         2           N   tau(   2) = (   0.1304915  -0.2043332  -0.1720905  )
         3           N   tau(   3) = (  -0.2444534  -0.0033899  -0.1706222  )
         4           N   tau(   4) = (   0.1400313   0.2141369  -0.1567142  )
         5           C   tau(   5) = (  -0.0731157   0.2250318   0.1524973  )
         6           C   tau(   6) = (   0.2154124  -0.0508542   0.1635810  )
         7           C   tau(   7) = (   0.2704225  -0.2781972  -0.0729143  )
         8           C   tau(   8) = (   0.3192290  -0.1997789   0.1089270  )
         9           C   tau(   9) = (  -0.1474179  -0.1697367   0.1474440  )
        10           C   tau(  10) = (   0.0806296   0.3768547  -0.0941834  )
        11           C   tau(  11) = (  -0.0063050   0.3988038   0.0883846  )
        12           C   tau(  12) = (  -0.3606067  -0.1320081  -0.1025590  )
        13           C   tau(  13) = (  -0.3065198  -0.2333370   0.0602629  )
        14           H   tau(  14) = (   0.2454294   0.0232556   0.2993326  )
        15           H   tau(  15) = (   0.4295776  -0.2755389   0.1934614  )
        16           H   tau(  16) = (   0.3488152  -0.4097732  -0.1255062  )
        17           H   tau(  17) = (   0.1054785   0.4888582  -0.1905170  )
        18           H   tau(  18) = (  -0.0215267   0.5267935   0.1694560  )
        19           H   tau(  19) = (  -0.1362324   0.2089523   0.2973892  )
        20           H   tau(  20) = (  -0.3577521  -0.3843022   0.0631557  )
        21           H   tau(  21) = (  -0.0873594  -0.2434950   0.2744477  )
        22           H   tau(  22) = (  -0.4952666  -0.1599681  -0.1690126  )
        23           H   tau(  23) = (   0.1054415  -0.2754546  -0.3004894  )
        24           H   tau(  24) = (   0.1959826   0.2177468  -0.2868290  )
        25           H   tau(  25) = (  -0.3110795   0.0917945  -0.2561216  )

     number of k points=     1  gaussian smearing, width (Ry)=  0.0100
                       cart. coord. in units 2pi/alat
        k(    1) = (   0.0000000   0.0000000   0.0000000), wk =   2.0000000

     Dense  grid:   104401 G-vectors     FFT dimensions: (  75,  75,  75)

     Smooth grid:    26318 G-vectors     FFT dimensions: (  48,  48,  48)

     Estimated max dynamical RAM per process >      46.16 MB

     Estimated total dynamical RAM >     553.92 MB

     Check: negative/imaginary core charge=   -0.000002    0.000000

     Initial potential from superposition of free atoms

     starting charge   71.99934, renormalised to   72.00000
     Starting wfc are   69 randomized atomic wfcs +   31 random wfc

     total cpu time spent up to now is        2.7 secs

     Self-consistent Calculation

     iteration #  1     ecut=    30.00 Ry     beta= 0.30
     Davidson diagonalization with overlap
     ethr =  1.00E-02,  avg # of iterations =  5.0

     total cpu time spent up to now is        3.1 secs

     total energy              =    -243.66268141 Ry
     Harris-Foulkes estimate   =    -244.89927541 Ry
     estimated scf accuracy    <       3.26789070 Ry

     iteration #  2     ecut=    30.00 Ry     beta= 0.30
     Davidson diagonalization with overlap
     ethr =  4.54E-03,  avg # of iterations =  1.0

     total cpu time spent up to now is        3.3 secs

     total energy              =    -243.74143112 Ry
     Harris-Foulkes estimate   =    -244.02221416 Ry
     estimated scf accuracy    <       0.78229186 Ry

     iteration #  3     ecut=    30.00 Ry     beta= 0.30
     Davidson diagonalization with overlap
     ethr =  1.09E-03,  avg # of iterations =  4.0

     total cpu time spent up to now is        3.6 secs

     total energy              =    -243.77213618 Ry
     Harris-Foulkes estimate   =    -243.86631716 Ry
     estimated scf accuracy    <       0.30673654 Ry

     iteration #  4     ecut=    30.00 Ry     beta= 0.30
     Davidson diagonalization with overlap
     ethr =  4.26E-04,  avg # of iterations =  2.0

     negative rho (up, down):  1.054E-07 0.000E+00

     total cpu time spent up to now is        3.8 secs

     total energy              =    -243.79156968 Ry
     Harris-Foulkes estimate   =    -243.80954122 Ry
     estimated scf accuracy    <       0.05420698 Ry

     iteration #  5     ecut=    30.00 Ry     beta= 0.30
     Davidson diagonalization with overlap
     ethr =  7.53E-05,  avg # of iterations =  6.0

     negative rho (up, down):  8.478E-08 0.000E+00

     total cpu time spent up to now is        4.1 secs

     total energy              =    -243.79991208 Ry
     Harris-Foulkes estimate   =    -243.80074718 Ry
     estimated scf accuracy    <       0.00481816 Ry

     iteration #  6     ecut=    30.00 Ry     beta= 0.30
     Davidson diagonalization with overlap
     ethr =  6.69E-06,  avg # of iterations =  2.0

     total cpu time spent up to now is        4.3 secs

     total energy              =    -243.80027530 Ry
     Harris-Foulkes estimate   =    -243.80037537 Ry
     estimated scf accuracy    <       0.00085125 Ry

     iteration #  7     ecut=    30.00 Ry     beta= 0.30
     Davidson diagonalization with overlap
     ethr =  1.18E-06,  avg # of iterations =  3.0

     total cpu time spent up to now is        4.6 secs

     End of self-consistent calculation

          k = 0.0000 0.0000 0.0000 (  3310 PWs)   bands (ev):

   -18.4785 -18.1744 -17.9474 -14.3828 -14.0740 -13.9083 -11.5472 -10.8089
   -10.4736  -9.0159  -8.5730  -8.4336  -8.1664  -7.9250  -7.6288  -6.4263
    -6.1416  -5.9434  -5.5871  -5.2710  -5.0056  -4.8163  -4.4448  -4.0506
    -3.9742  -3.6376  -3.5449  -2.4626  -2.3326  -2.0746  -1.6454  -1.5442
    -1.3549  -0.4929  -0.2499   0.4194   1.9590   2.5466   2.9727   3.1687
     4.8708   5.0023   5.2481   5.4903   5.6337   5.8282   6.0023   6.0718
     6.6753   7.0556   7.1374   7.3989   7.7822   7.8953   8.1614   8.4017
     8.6919   8.9932   9.1397   9.4098   9.5467   9.7288   9.8419  10.7362
    10.8027  10.8227  11.1289  11.2436  11.4950  11.7862  11.9873  12.1493
    12.3173  12.4801  12.6255  12.9013  13.1525  13.4377  13.5555  13.7977
    13.9109  14.0717  14.2543  14.4238  14.6613  14.8912  15.0116  15.1029
    15.2526  15.3040  15.4072  15.7473  15.7659  15.9224  16.2026  16.6026
    16.6466  16.9321  17.0610  17.0840

     the Fermi energy is     1.2773 ev

!    total energy              =    -243.80041639 Ry
     Harris-Foulkes estimate   =    -243.80035368 Ry
     estimated scf accuracy    <       0.00008439 Ry

     The total energy is the sum of the following terms:

     one-electron contribution =    -346.97023692 Ry
     hartree contribution      =     197.64319327 Ry
     xc contribution           =     -93.40861718 Ry
     ewald contribution        =      -1.06475556 Ry
     smearing contrib. (-TS)   =      -0.00000000 Ry

     convergence has been achieved in   7 iterations

     Writing output data file x0.save
 
     init_run     :      0.39s CPU      0.44s WALL (       1 calls)
     electrons    :      1.83s CPU      1.93s WALL (       1 calls)

     Called by init_run:
     wfcinit      :      0.03s CPU      0.04s WALL (       1 calls)
     potinit      :      0.07s CPU      0.08s WALL (       1 calls)

     Called by electrons:
     c_bands      :      0.91s CPU      0.93s WALL (       7 calls)
     sum_band     :      0.43s CPU      0.44s WALL (       7 calls)
     v_of_rho     :      0.23s CPU      0.23s WALL (       8 calls)
     newd         :      0.28s CPU      0.29s WALL (       8 calls)
     mix_rho      :      0.03s CPU      0.03s WALL (       7 calls)

     Called by c_bands:
     init_us_2    :      0.00s CPU      0.00s WALL (      15 calls)
     regterg      :      0.89s CPU      0.91s WALL (       7 calls)

     Called by sum_band:
     sum_band:bec :      0.00s CPU      0.00s WALL (       7 calls)
     addusdens    :      0.30s CPU      0.30s WALL (       7 calls)

     Called by *egterg:
     h_psi        :      0.43s CPU      0.44s WALL (      31 calls)
     s_psi        :      0.01s CPU      0.01s WALL (      31 calls)
     g_psi        :      0.00s CPU      0.00s WALL (      23 calls)
     rdiaghg      :      0.37s CPU      0.37s WALL (      30 calls)

     Called by h_psi:
     h_psi:pot    :      0.43s CPU      0.44s WALL (      31 calls)
     h_psi:calbec :      0.02s CPU      0.02s WALL (      31 calls)
     vloc_psi     :      0.40s CPU      0.41s WALL (      31 calls)
     add_vuspsi   :      0.01s CPU      0.01s WALL (      31 calls)

     General routines
     calbec       :      0.02s CPU      0.02s WALL (      38 calls)
     fft          :      0.23s CPU      0.24s WALL (     124 calls)
     ffts         :      0.01s CPU      0.01s WALL (      15 calls)
     fftw         :      0.42s CPU      0.44s WALL (    2190 calls)
     interpolate  :      0.04s CPU      0.04s WALL (      15 calls)
 
     Parallel routines
     fft_scatt_xy :      0.04s CPU      0.04s WALL (    2329 calls)
     fft_scatt_yz :      0.12s CPU      0.13s WALL (    2329 calls)
 
     PWSCF        :     3.81s CPU         5.20s WALL

 
   This run was terminated on:  18:55:23  22Jun2021            

=------------------------------------------------------------------------------=
   JOB DONE.
=------------------------------------------------------------------------------=
