
     Program PWSCF v.6.2 (svn rev. 14038) starts on 22Jun2021 at 18:57: 7 

     This program is part of the open-source Quantum ESPRESSO suite
     for quantum simulation of materials; please cite
         "P. Giannozzi et al., J. Phys.:Condens. Matter 21 395502 (2009);
         "P. Giannozzi et al., J. Phys.:Condens. Matter 29 465901 (2017);
          URL http://www.quantum-espresso.org", 
     in publications or presentations arising from this work. More details at
     http://www.quantum-espresso.org/quote

     Parallel version (MPI), running on    12 processors

     MPI processes distributed on     1 nodes
     R & G space division:  proc/nbgrp/npool/nimage =      12
     Waiting for input...
     Reading input from standard input

     Current dimensions of program PWSCF are:
     Max number of different atomic species (ntypx) = 10
     Max number of k-points (npk) =  40000
     Max angular momentum in pseudopotentials (lmaxx) =  3
               file Ir.pbe-n-rrkjus_psl.0.2.3.UPF: wavefunction(s)  5D renormalized

     gamma-point specific algorithms are used

     Subspace diagonalization in iterative solution of the eigenvalue problem:
     a serial algorithm will be used

 
     Parallelization info
     --------------------
     sticks:   dense  smooth     PW     G-vecs:    dense   smooth      PW
     Min         353     140     34                17398     4383     546
     Max         356     144     36                17404     4390     556
     Sum        4257    1701    421               208801    52635    6619
 


     bravais-lattice index     =            0
     lattice parameter (alat)  =      13.3514  a.u.
     unit-cell volume          =    2380.0325 (a.u.)^3
     number of atoms/cell      =           25
     number of atomic types    =            4
     number of electrons       =        72.00
     number of Kohn-Sham states=          100
     kinetic-energy cutoff     =      30.0000  Ry
     charge density cutoff     =     300.0000  Ry
     convergence threshold     =      1.0E-04
     mixing beta               =       0.3000
     number of iterations used =            8  plain     mixing
     Exchange-correlation      = PBE ( 1  4  3  4 0 0)

     celldm(1)=  13.351425  celldm(2)=   0.000000  celldm(3)=   0.000000
     celldm(4)=   0.000000  celldm(5)=   0.000000  celldm(6)=   0.000000

     crystal axes: (cart. coord. in units of alat)
               a(1) = (   1.000000   0.000000   0.000000 )  
               a(2) = (   0.000000   1.000000   0.000000 )  
               a(3) = (   0.000000   0.000000   1.000000 )  

     reciprocal axes: (cart. coord. in units 2 pi/alat)
               b(1) = (  1.000000  0.000000  0.000000 )  
               b(2) = (  0.000000  1.000000  0.000000 )  
               b(3) = (  0.000000  0.000000  1.000000 )  


     PseudoPot. # 1 for C  read from file:
     /util/academic/espresso/6.2.1/pseudopotentials/upf_files/C.pbe-n-rrkjus_psl.0.1.UPF
     MD5 check sum: ab446d787031eba755f1d5ee46644bb0
     Pseudo is Ultrasoft + core correction, Zval =  4.0
     Generated using "atomic" code by A. Dal Corso v.5.0.2 svn rev. 9415
     Using radial grid of 1073 points,  4 beta functions with: 
                l(1) =   0
                l(2) =   0
                l(3) =   1
                l(4) =   1
     Q(r) pseudized with 0 coefficients 


     PseudoPot. # 2 for H  read from file:
     /util/academic/espresso/6.2.1/pseudopotentials/upf_files/H.pbe-rrkjus_psl.0.1.UPF
     MD5 check sum: bd57da0722753ddfd9833a65b40bb853
     Pseudo is Ultrasoft, Zval =  1.0
     Generated using "atomic" code by A. Dal Corso v.5.0.2 svn rev. 9415
     Using radial grid of  929 points,  2 beta functions with: 
                l(1) =   0
                l(2) =   0
     Q(r) pseudized with 0 coefficients 


     PseudoPot. # 3 for Ir read from file:
     /util/academic/espresso/6.2.1/pseudopotentials/upf_files/Ir.pbe-n-rrkjus_psl.0.2.3.UPF
     MD5 check sum: 0d5bc36db6a0bde07ee800c0d8fcbb77
     Pseudo is Ultrasoft + core correction, Zval =  9.0
     Generated using "atomic" code by A. Dal Corso v.5.0.2 svn rev. 9415
     Using radial grid of 1277 points,  6 beta functions with: 
                l(1) =   0
                l(2) =   0
                l(3) =   1
                l(4) =   1
                l(5) =   2
                l(6) =   2
     Q(r) pseudized with 0 coefficients 


     PseudoPot. # 4 for N  read from file:
     /util/academic/espresso/6.2.1/pseudopotentials/upf_files/N.pbe-n-rrkjus_psl.0.1.UPF
     MD5 check sum: ed8b6a90f28a53b7d71920e7015d2dd6
     Pseudo is Ultrasoft + core correction, Zval =  5.0
     Generated using "atomic" code by A. Dal Corso v.5.0.2 svn rev. 9415
     Using radial grid of 1085 points,  4 beta functions with: 
                l(1) =   0
                l(2) =   0
                l(3) =   1
                l(4) =   1
     Q(r) pseudized with 0 coefficients 


     atomic species   valence    mass     pseudopotential
        C              4.00    12.01000     C ( 1.00)
        H              1.00     1.00700     H ( 1.00)
        Ir             9.00   192.21700     Ir( 1.00)
        N              5.00    14.00600     N ( 1.00)

     No symmetry found



   Cartesian axes

     site n.     atom                  positions (alat units)
         1           Ir  tau(   1) = (   0.0000026   0.0040760   0.0014095  )
         2           N   tau(   2) = (   0.1589325  -0.1871185  -0.1597988  )
         3           N   tau(   3) = (  -0.2381012   0.0021817  -0.1684578  )
         4           N   tau(   4) = (   0.1091216   0.2126162  -0.1690655  )
         5           C   tau(   5) = (  -0.0782898   0.2279042   0.1522306  )
         6           C   tau(   6) = (   0.2135965  -0.0529751   0.1810202  )
         7           C   tau(   7) = (   0.2852548  -0.2773535  -0.0530399  )
         8           C   tau(   8) = (   0.3117835  -0.2133279   0.1297487  )
         9           C   tau(   9) = (  -0.1525882  -0.1772771   0.1336693  )
        10           C   tau(  10) = (   0.0736904   0.3819208  -0.0953563  )
        11           C   tau(  11) = (  -0.0115951   0.3928613   0.0858239  )
        12           C   tau(  12) = (  -0.3566342  -0.1335704  -0.1209892  )
        13           C   tau(  13) = (  -0.3176681  -0.2385971   0.0392615  )
        14           H   tau(  14) = (   0.2555414   0.0203588   0.3109767  )
        15           H   tau(  15) = (   0.4125994  -0.2730684   0.2321324  )
        16           H   tau(  16) = (   0.3734105  -0.3972779  -0.1004340  )
        17           H   tau(  17) = (   0.0751751   0.5066046  -0.1993352  )
        18           H   tau(  18) = (  -0.0134354   0.5331117   0.1465019  )
        19           H   tau(  19) = (  -0.1552413   0.2225011   0.2863277  )
        20           H   tau(  20) = (  -0.3947611  -0.3595435   0.0708883  )
        21           H   tau(  21) = (  -0.1207891  -0.2249158   0.2864399  )
        22           H   tau(  22) = (  -0.4607057  -0.1805025  -0.2311507  )
        23           H   tau(  23) = (   0.1224796  -0.2279271  -0.2909753  )
        24           H   tau(  24) = (   0.1408322   0.2180129  -0.3118080  )
        25           H   tau(  25) = (  -0.2652071   0.0779616  -0.2952177  )

     number of k points=     1  gaussian smearing, width (Ry)=  0.0100
                       cart. coord. in units 2pi/alat
        k(    1) = (   0.0000000   0.0000000   0.0000000), wk =   2.0000000

     Dense  grid:   104401 G-vectors     FFT dimensions: (  75,  75,  75)

     Smooth grid:    26318 G-vectors     FFT dimensions: (  48,  48,  48)

     Estimated max dynamical RAM per process >      46.16 MB

     Estimated total dynamical RAM >     553.92 MB

     Check: negative/imaginary core charge=   -0.000002    0.000000

     Initial potential from superposition of free atoms

     starting charge   71.99934, renormalised to   72.00000
     Starting wfc are   69 randomized atomic wfcs +   31 random wfc

     total cpu time spent up to now is        2.5 secs

     Self-consistent Calculation

     iteration #  1     ecut=    30.00 Ry     beta= 0.30
     Davidson diagonalization with overlap
     ethr =  1.00E-02,  avg # of iterations =  5.0

     total cpu time spent up to now is        2.8 secs

     total energy              =    -243.65055112 Ry
     Harris-Foulkes estimate   =    -244.96548888 Ry
     estimated scf accuracy    <       3.42923064 Ry

     iteration #  2     ecut=    30.00 Ry     beta= 0.30
     Davidson diagonalization with overlap
     ethr =  4.76E-03,  avg # of iterations =  1.0

     total cpu time spent up to now is        3.0 secs

     total energy              =    -243.77215904 Ry
     Harris-Foulkes estimate   =    -244.08203988 Ry
     estimated scf accuracy    <       0.88618446 Ry

     iteration #  3     ecut=    30.00 Ry     beta= 0.30
     Davidson diagonalization with overlap
     ethr =  1.23E-03,  avg # of iterations =  4.0

     total cpu time spent up to now is        3.3 secs

     total energy              =    -243.81333322 Ry
     Harris-Foulkes estimate   =    -243.91659906 Ry
     estimated scf accuracy    <       0.33111327 Ry

     iteration #  4     ecut=    30.00 Ry     beta= 0.30
     Davidson diagonalization with overlap
     ethr =  4.60E-04,  avg # of iterations =  3.0

     negative rho (up, down):  2.223E-07 0.000E+00

     total cpu time spent up to now is        3.5 secs

     total energy              =    -243.83378403 Ry
     Harris-Foulkes estimate   =    -243.85219070 Ry
     estimated scf accuracy    <       0.05448035 Ry

     iteration #  5     ecut=    30.00 Ry     beta= 0.30
     Davidson diagonalization with overlap
     ethr =  7.57E-05,  avg # of iterations =  7.0

     negative rho (up, down):  2.818E-07 0.000E+00

     total cpu time spent up to now is        3.9 secs

     total energy              =    -243.84263576 Ry
     Harris-Foulkes estimate   =    -243.84350444 Ry
     estimated scf accuracy    <       0.00495622 Ry

     iteration #  6     ecut=    30.00 Ry     beta= 0.30
     Davidson diagonalization with overlap
     ethr =  6.88E-06,  avg # of iterations =  2.0

     negative rho (up, down):  1.162E-07 0.000E+00

     total cpu time spent up to now is        4.1 secs

     total energy              =    -243.84297524 Ry
     Harris-Foulkes estimate   =    -243.84307921 Ry
     estimated scf accuracy    <       0.00094300 Ry

     iteration #  7     ecut=    30.00 Ry     beta= 0.30
     Davidson diagonalization with overlap
     ethr =  1.31E-06,  avg # of iterations =  4.0

     negative rho (up, down):  2.718E-08 0.000E+00

     total cpu time spent up to now is        4.4 secs

     total energy              =    -243.84306595 Ry
     Harris-Foulkes estimate   =    -243.84305539 Ry
     estimated scf accuracy    <       0.00015618 Ry

     iteration #  8     ecut=    30.00 Ry     beta= 0.30
     Davidson diagonalization with overlap
     ethr =  2.17E-07,  avg # of iterations =  2.0

     total cpu time spent up to now is        4.6 secs

     End of self-consistent calculation

          k = 0.0000 0.0000 0.0000 (  3310 PWs)   bands (ev):

   -18.2745 -17.9569 -17.8089 -14.3846 -14.1931 -13.7988 -11.5782 -10.7647
   -10.5443  -9.1935  -8.4737  -8.2463  -8.2172  -8.0533  -7.6196  -6.5154
    -5.8698  -5.7821  -5.6115  -5.2167  -5.0787  -4.7873  -4.3419  -4.2941
    -4.0251  -3.8998  -3.4338  -2.4304  -2.3723  -2.1470  -1.6876  -1.4272
    -1.2733  -0.4847  -0.3429   0.2583   1.9272   2.5796   3.0160   3.1439
     4.8507   5.1035   5.4026   5.4626   5.5865   5.7712   5.9636   6.2485
     6.6114   6.9464   7.0132   7.4893   7.7638   7.9190   8.1998   8.3809
     8.5203   8.6240   9.0765   9.2613   9.5155   9.8763  10.1555  10.4315
    10.7689  11.0447  11.1814  11.2943  11.5139  11.7404  11.8641  12.2027
    12.4567  12.7270  12.7792  12.8311  13.0326  13.0935  13.5802  13.9737
    14.0377  14.1988  14.2832  14.5160  14.5695  14.6760  14.8550  14.9363
    15.1833  15.3838  15.4595  15.6674  15.8941  16.0366  16.1087  16.3691
    16.6205  16.8020  16.9845  17.0282

     the Fermi energy is     1.0572 ev

!    total energy              =    -243.84313350 Ry
     Harris-Foulkes estimate   =    -243.84309452 Ry
     estimated scf accuracy    <       0.00002257 Ry

     The total energy is the sum of the following terms:

     one-electron contribution =    -343.06435845 Ry
     hartree contribution      =     195.69538875 Ry
     xc contribution           =     -93.34694709 Ry
     ewald contribution        =      -3.12721670 Ry
     smearing contrib. (-TS)   =      -0.00000000 Ry

     convergence has been achieved in   8 iterations

     Writing output data file x0.save
 
     init_run     :      0.36s CPU      0.41s WALL (       1 calls)
     electrons    :      2.07s CPU      2.22s WALL (       1 calls)

     Called by init_run:
     wfcinit      :      0.03s CPU      0.03s WALL (       1 calls)
     potinit      :      0.07s CPU      0.07s WALL (       1 calls)

     Called by electrons:
     c_bands      :      1.03s CPU      1.05s WALL (       8 calls)
     sum_band     :      0.48s CPU      0.50s WALL (       8 calls)
     v_of_rho     :      0.25s CPU      0.25s WALL (       9 calls)
     newd         :      0.32s CPU      0.33s WALL (       9 calls)
     mix_rho      :      0.03s CPU      0.03s WALL (       8 calls)

     Called by c_bands:
     init_us_2    :      0.00s CPU      0.01s WALL (      17 calls)
     regterg      :      1.02s CPU      1.04s WALL (       8 calls)

     Called by sum_band:
     sum_band:bec :      0.00s CPU      0.00s WALL (       8 calls)
     addusdens    :      0.33s CPU      0.34s WALL (       8 calls)

     Called by *egterg:
     h_psi        :      0.47s CPU      0.48s WALL (      37 calls)
     s_psi        :      0.01s CPU      0.01s WALL (      37 calls)
     g_psi        :      0.00s CPU      0.00s WALL (      28 calls)
     rdiaghg      :      0.43s CPU      0.43s WALL (      36 calls)

     Called by h_psi:
     h_psi:pot    :      0.46s CPU      0.48s WALL (      37 calls)
     h_psi:calbec :      0.02s CPU      0.02s WALL (      37 calls)
     vloc_psi     :      0.43s CPU      0.44s WALL (      37 calls)
     add_vuspsi   :      0.01s CPU      0.01s WALL (      37 calls)

     General routines
     calbec       :      0.02s CPU      0.03s WALL (      45 calls)
     fft          :      0.25s CPU      0.25s WALL (     140 calls)
     ffts         :      0.01s CPU      0.01s WALL (      17 calls)
     fftw         :      0.46s CPU      0.47s WALL (    2458 calls)
     interpolate  :      0.04s CPU      0.04s WALL (      17 calls)
 
     Parallel routines
     fft_scatt_xy :      0.04s CPU      0.04s WALL (    2615 calls)
     fft_scatt_yz :      0.13s CPU      0.14s WALL (    2615 calls)
 
     PWSCF        :     3.98s CPU         5.21s WALL

 
   This run was terminated on:  18:57:13  22Jun2021            

=------------------------------------------------------------------------------=
   JOB DONE.
=------------------------------------------------------------------------------=
