
     Program PWSCF v.6.2 (svn rev. 14038) starts on 22Jun2021 at 18:58:52 

     This program is part of the open-source Quantum ESPRESSO suite
     for quantum simulation of materials; please cite
         "P. Giannozzi et al., J. Phys.:Condens. Matter 21 395502 (2009);
         "P. Giannozzi et al., J. Phys.:Condens. Matter 29 465901 (2017);
          URL http://www.quantum-espresso.org", 
     in publications or presentations arising from this work. More details at
     http://www.quantum-espresso.org/quote

     Parallel version (MPI), running on    12 processors

     MPI processes distributed on     1 nodes
     R & G space division:  proc/nbgrp/npool/nimage =      12
     Waiting for input...
     Reading input from standard input

     Current dimensions of program PWSCF are:
     Max number of different atomic species (ntypx) = 10
     Max number of k-points (npk) =  40000
     Max angular momentum in pseudopotentials (lmaxx) =  3
               file Ir.pbe-n-rrkjus_psl.0.2.3.UPF: wavefunction(s)  5D renormalized

     gamma-point specific algorithms are used

     Subspace diagonalization in iterative solution of the eigenvalue problem:
     a serial algorithm will be used

 
     Parallelization info
     --------------------
     sticks:   dense  smooth     PW     G-vecs:    dense   smooth      PW
     Min         353     140     34                17398     4383     546
     Max         356     144     36                17404     4390     556
     Sum        4257    1701    421               208801    52635    6619
 


     bravais-lattice index     =            0
     lattice parameter (alat)  =      13.3514  a.u.
     unit-cell volume          =    2380.0325 (a.u.)^3
     number of atoms/cell      =           25
     number of atomic types    =            4
     number of electrons       =        72.00
     number of Kohn-Sham states=          100
     kinetic-energy cutoff     =      30.0000  Ry
     charge density cutoff     =     300.0000  Ry
     convergence threshold     =      1.0E-04
     mixing beta               =       0.3000
     number of iterations used =            8  plain     mixing
     Exchange-correlation      = PBE ( 1  4  3  4 0 0)

     celldm(1)=  13.351425  celldm(2)=   0.000000  celldm(3)=   0.000000
     celldm(4)=   0.000000  celldm(5)=   0.000000  celldm(6)=   0.000000

     crystal axes: (cart. coord. in units of alat)
               a(1) = (   1.000000   0.000000   0.000000 )  
               a(2) = (   0.000000   1.000000   0.000000 )  
               a(3) = (   0.000000   0.000000   1.000000 )  

     reciprocal axes: (cart. coord. in units 2 pi/alat)
               b(1) = (  1.000000  0.000000  0.000000 )  
               b(2) = (  0.000000  1.000000  0.000000 )  
               b(3) = (  0.000000  0.000000  1.000000 )  


     PseudoPot. # 1 for C  read from file:
     /util/academic/espresso/6.2.1/pseudopotentials/upf_files/C.pbe-n-rrkjus_psl.0.1.UPF
     MD5 check sum: ab446d787031eba755f1d5ee46644bb0
     Pseudo is Ultrasoft + core correction, Zval =  4.0
     Generated using "atomic" code by A. Dal Corso v.5.0.2 svn rev. 9415
     Using radial grid of 1073 points,  4 beta functions with: 
                l(1) =   0
                l(2) =   0
                l(3) =   1
                l(4) =   1
     Q(r) pseudized with 0 coefficients 


     PseudoPot. # 2 for H  read from file:
     /util/academic/espresso/6.2.1/pseudopotentials/upf_files/H.pbe-rrkjus_psl.0.1.UPF
     MD5 check sum: bd57da0722753ddfd9833a65b40bb853
     Pseudo is Ultrasoft, Zval =  1.0
     Generated using "atomic" code by A. Dal Corso v.5.0.2 svn rev. 9415
     Using radial grid of  929 points,  2 beta functions with: 
                l(1) =   0
                l(2) =   0
     Q(r) pseudized with 0 coefficients 


     PseudoPot. # 3 for Ir read from file:
     /util/academic/espresso/6.2.1/pseudopotentials/upf_files/Ir.pbe-n-rrkjus_psl.0.2.3.UPF
     MD5 check sum: 0d5bc36db6a0bde07ee800c0d8fcbb77
     Pseudo is Ultrasoft + core correction, Zval =  9.0
     Generated using "atomic" code by A. Dal Corso v.5.0.2 svn rev. 9415
     Using radial grid of 1277 points,  6 beta functions with: 
                l(1) =   0
                l(2) =   0
                l(3) =   1
                l(4) =   1
                l(5) =   2
                l(6) =   2
     Q(r) pseudized with 0 coefficients 


     PseudoPot. # 4 for N  read from file:
     /util/academic/espresso/6.2.1/pseudopotentials/upf_files/N.pbe-n-rrkjus_psl.0.1.UPF
     MD5 check sum: ed8b6a90f28a53b7d71920e7015d2dd6
     Pseudo is Ultrasoft + core correction, Zval =  5.0
     Generated using "atomic" code by A. Dal Corso v.5.0.2 svn rev. 9415
     Using radial grid of 1085 points,  4 beta functions with: 
                l(1) =   0
                l(2) =   0
                l(3) =   1
                l(4) =   1
     Q(r) pseudized with 0 coefficients 


     atomic species   valence    mass     pseudopotential
        C              4.00    12.01000     C ( 1.00)
        H              1.00     1.00700     H ( 1.00)
        Ir             9.00   192.21700     Ir( 1.00)
        N              5.00    14.00600     N ( 1.00)

     No symmetry found



   Cartesian axes

     site n.     atom                  positions (alat units)
         1           Ir  tau(   1) = (   0.0005381   0.0064543   0.0041617  )
         2           N   tau(   2) = (   0.1747655  -0.1911893  -0.1588771  )
         3           N   tau(   3) = (  -0.2325696   0.0077379  -0.1826221  )
         4           N   tau(   4) = (   0.1032699   0.2215058  -0.1673292  )
         5           C   tau(   5) = (  -0.0908198   0.2231278   0.1587082  )
         6           C   tau(   6) = (   0.2091715  -0.0561955   0.1886212  )
         7           C   tau(   7) = (   0.2868186  -0.2838042  -0.0459260  )
         8           C   tau(   8) = (   0.3049425  -0.2135852   0.1478495  )
         9           C   tau(   9) = (  -0.1557668  -0.1981277   0.1207794  )
        10           C   tau(  10) = (   0.0660433   0.3844962  -0.1012675  )
        11           C   tau(  11) = (  -0.0241522   0.3945194   0.0857689  )
        12           C   tau(  12) = (  -0.3444421  -0.1354774  -0.1451638  )
        13           C   tau(  13) = (  -0.3088788  -0.2516427   0.0140998  )
        14           H   tau(  14) = (   0.2589325   0.0156759   0.3228263  )
        15           H   tau(  15) = (   0.4110979  -0.2784930   0.2448845  )
        16           H   tau(  16) = (   0.3721293  -0.3959010  -0.1130817  )
        17           H   tau(  17) = (   0.0933555   0.5083011  -0.2024607  )
        18           H   tau(  18) = (  -0.0253748   0.5289438   0.1593343  )
        19           H   tau(  19) = (  -0.1766626   0.2209276   0.2908465  )
        20           H   tau(  20) = (  -0.4098084  -0.3594094   0.0553897  )
        21           H   tau(  21) = (  -0.1222958  -0.2509840   0.2603159  )
        22           H   tau(  22) = (  -0.4768453  -0.1579201  -0.2254814  )
        23           H   tau(  23) = (   0.1455179  -0.2358692  -0.2969954  )
        24           H   tau(  24) = (   0.1302925   0.2087887  -0.3025030  )
        25           H   tau(  25) = (  -0.2546356   0.0648790  -0.3093595  )

     number of k points=     1  gaussian smearing, width (Ry)=  0.0100
                       cart. coord. in units 2pi/alat
        k(    1) = (   0.0000000   0.0000000   0.0000000), wk =   2.0000000

     Dense  grid:   104401 G-vectors     FFT dimensions: (  75,  75,  75)

     Smooth grid:    26318 G-vectors     FFT dimensions: (  48,  48,  48)

     Estimated max dynamical RAM per process >      46.16 MB

     Estimated total dynamical RAM >     553.92 MB

     Check: negative/imaginary core charge=   -0.000002    0.000000

     Initial potential from superposition of free atoms

     starting charge   71.99934, renormalised to   72.00000
     Starting wfc are   69 randomized atomic wfcs +   31 random wfc

     total cpu time spent up to now is        2.4 secs

     Self-consistent Calculation

     iteration #  1     ecut=    30.00 Ry     beta= 0.30
     Davidson diagonalization with overlap
     ethr =  1.00E-02,  avg # of iterations =  5.0

     total cpu time spent up to now is        2.8 secs

     total energy              =    -243.67715234 Ry
     Harris-Foulkes estimate   =    -244.95389677 Ry
     estimated scf accuracy    <       3.34594093 Ry

     iteration #  2     ecut=    30.00 Ry     beta= 0.30
     Davidson diagonalization with overlap
     ethr =  4.65E-03,  avg # of iterations =  1.0

     total cpu time spent up to now is        3.0 secs

     total energy              =    -243.78626294 Ry
     Harris-Foulkes estimate   =    -244.09125428 Ry
     estimated scf accuracy    <       0.87153550 Ry

     iteration #  3     ecut=    30.00 Ry     beta= 0.30
     Davidson diagonalization with overlap
     ethr =  1.21E-03,  avg # of iterations =  4.0

     total cpu time spent up to now is        3.2 secs

     total energy              =    -243.82168120 Ry
     Harris-Foulkes estimate   =    -243.92763928 Ry
     estimated scf accuracy    <       0.33992426 Ry

     iteration #  4     ecut=    30.00 Ry     beta= 0.30
     Davidson diagonalization with overlap
     ethr =  4.72E-04,  avg # of iterations =  3.0

     negative rho (up, down):  6.303E-08 0.000E+00

     total cpu time spent up to now is        3.4 secs

     total energy              =    -243.84533915 Ry
     Harris-Foulkes estimate   =    -243.86353519 Ry
     estimated scf accuracy    <       0.05483799 Ry

     iteration #  5     ecut=    30.00 Ry     beta= 0.30
     Davidson diagonalization with overlap
     ethr =  7.62E-05,  avg # of iterations =  6.0

     negative rho (up, down):  2.099E-07 0.000E+00

     total cpu time spent up to now is        3.7 secs

     total energy              =    -243.85402499 Ry
     Harris-Foulkes estimate   =    -243.85496420 Ry
     estimated scf accuracy    <       0.00527030 Ry

     iteration #  6     ecut=    30.00 Ry     beta= 0.30
     Davidson diagonalization with overlap
     ethr =  7.32E-06,  avg # of iterations =  2.0

     negative rho (up, down):  1.253E-07 0.000E+00

     total cpu time spent up to now is        4.0 secs

     total energy              =    -243.85429843 Ry
     Harris-Foulkes estimate   =    -243.85438373 Ry
     estimated scf accuracy    <       0.00084443 Ry

     iteration #  7     ecut=    30.00 Ry     beta= 0.30
     Davidson diagonalization with overlap
     ethr =  1.17E-06,  avg # of iterations =  3.0

     total cpu time spent up to now is        4.2 secs

     End of self-consistent calculation

          k = 0.0000 0.0000 0.0000 (  3310 PWs)   bands (ev):

   -18.6258 -18.2774 -18.0292 -14.2976 -13.9590 -13.7803 -11.4066 -10.7668
   -10.6292  -9.1019  -8.6756  -8.2957  -8.2393  -8.0245  -7.7204  -6.3977
    -6.0153  -5.7273  -5.4236  -5.2413  -5.0260  -4.8118  -4.2875  -3.9870
    -3.9309  -3.7685  -3.6547  -2.2786  -2.2224  -2.0918  -1.7730  -1.5459
    -1.2483  -0.3372  -0.2706   0.1436   2.1189   2.5239   3.1121   3.1518
     4.7164   5.0870   5.3173   5.3822   5.5336   5.6893   6.0196   6.1584
     6.4675   6.6291   6.9135   7.4294   7.7503   7.8185   8.1631   8.2425
     8.4651   8.6910   9.1773   9.2976   9.6968  10.0304  10.2142  10.5164
    10.7304  11.0902  11.1699  11.2111  11.6279  11.6993  11.8947  12.3010
    12.4604  12.5244  12.5679  12.8765  12.9844  13.0685  13.3452  13.8028
    13.9765  14.0491  14.3449  14.4287  14.4844  14.6674  14.7490  14.8601
    15.0799  15.2636  15.4671  15.7322  15.9108  16.0913  16.2607  16.3171
    16.5399  16.8629  16.9196  16.9702

     the Fermi energy is     1.4310 ev

!    total energy              =    -243.85444249 Ry
     Harris-Foulkes estimate   =    -243.85438680 Ry
     estimated scf accuracy    <       0.00008231 Ry

     The total energy is the sum of the following terms:

     one-electron contribution =    -332.24796745 Ry
     hartree contribution      =     190.19724546 Ry
     xc contribution           =     -93.24428933 Ry
     ewald contribution        =      -8.55943118 Ry
     smearing contrib. (-TS)   =      -0.00000000 Ry

     convergence has been achieved in   7 iterations

     Writing output data file x0.save
 
     init_run     :      0.37s CPU      0.70s WALL (       1 calls)
     electrons    :      1.70s CPU      1.80s WALL (       1 calls)

     Called by init_run:
     wfcinit      :      0.04s CPU      0.05s WALL (       1 calls)
     potinit      :      0.07s CPU      0.07s WALL (       1 calls)

     Called by electrons:
     c_bands      :      0.83s CPU      0.86s WALL (       7 calls)
     sum_band     :      0.40s CPU      0.41s WALL (       7 calls)
     v_of_rho     :      0.21s CPU      0.22s WALL (       8 calls)
     newd         :      0.27s CPU      0.57s WALL (       8 calls)
     mix_rho      :      0.02s CPU      0.02s WALL (       7 calls)

     Called by c_bands:
     init_us_2    :      0.00s CPU      0.00s WALL (      15 calls)
     regterg      :      0.82s CPU      0.85s WALL (       7 calls)

     Called by sum_band:
     sum_band:bec :      0.00s CPU      0.00s WALL (       7 calls)
     addusdens    :      0.27s CPU      0.28s WALL (       7 calls)

     Called by *egterg:
     h_psi        :      0.42s CPU      0.44s WALL (      32 calls)
     s_psi        :      0.01s CPU      0.01s WALL (      32 calls)
     g_psi        :      0.00s CPU      0.00s WALL (      24 calls)
     rdiaghg      :      0.34s CPU      0.34s WALL (      31 calls)

     Called by h_psi:
     h_psi:pot    :      0.42s CPU      0.44s WALL (      32 calls)
     h_psi:calbec :      0.02s CPU      0.02s WALL (      32 calls)
     vloc_psi     :      0.40s CPU      0.41s WALL (      32 calls)
     add_vuspsi   :      0.01s CPU      0.01s WALL (      32 calls)

     General routines
     calbec       :      0.02s CPU      0.02s WALL (      39 calls)
     fft          :      0.32s CPU      0.33s WALL (     124 calls)
     ffts         :      0.01s CPU      0.01s WALL (      15 calls)
     fftw         :      0.43s CPU      0.45s WALL (    2176 calls)
     interpolate  :      0.03s CPU      0.03s WALL (      15 calls)
 
     Parallel routines
     fft_scatt_xy :      0.04s CPU      0.04s WALL (    2315 calls)
     fft_scatt_yz :      0.29s CPU      0.31s WALL (    2315 calls)
 
     PWSCF        :     3.58s CPU         4.72s WALL

 
   This run was terminated on:  18:58:56  22Jun2021            

=------------------------------------------------------------------------------=
   JOB DONE.
=------------------------------------------------------------------------------=
