
     Program PWSCF v.6.2 (svn rev. 14038) starts on 22Jun2021 at 18:59: 2 

     This program is part of the open-source Quantum ESPRESSO suite
     for quantum simulation of materials; please cite
         "P. Giannozzi et al., J. Phys.:Condens. Matter 21 395502 (2009);
         "P. Giannozzi et al., J. Phys.:Condens. Matter 29 465901 (2017);
          URL http://www.quantum-espresso.org", 
     in publications or presentations arising from this work. More details at
     http://www.quantum-espresso.org/quote

     Parallel version (MPI), running on    12 processors

     MPI processes distributed on     1 nodes
     R & G space division:  proc/nbgrp/npool/nimage =      12
     Waiting for input...
     Reading input from standard input

     Current dimensions of program PWSCF are:
     Max number of different atomic species (ntypx) = 10
     Max number of k-points (npk) =  40000
     Max angular momentum in pseudopotentials (lmaxx) =  3
               file Ir.pbe-n-rrkjus_psl.0.2.3.UPF: wavefunction(s)  5D renormalized

     gamma-point specific algorithms are used

     Subspace diagonalization in iterative solution of the eigenvalue problem:
     a serial algorithm will be used

 
     Parallelization info
     --------------------
     sticks:   dense  smooth     PW     G-vecs:    dense   smooth      PW
     Min         353     140     34                17398     4383     546
     Max         356     144     36                17404     4390     556
     Sum        4257    1701    421               208801    52635    6619
 


     bravais-lattice index     =            0
     lattice parameter (alat)  =      13.3514  a.u.
     unit-cell volume          =    2380.0325 (a.u.)^3
     number of atoms/cell      =           25
     number of atomic types    =            4
     number of electrons       =        72.00
     number of Kohn-Sham states=          100
     kinetic-energy cutoff     =      30.0000  Ry
     charge density cutoff     =     300.0000  Ry
     convergence threshold     =      1.0E-04
     mixing beta               =       0.3000
     number of iterations used =            8  plain     mixing
     Exchange-correlation      = PBE ( 1  4  3  4 0 0)

     celldm(1)=  13.351425  celldm(2)=   0.000000  celldm(3)=   0.000000
     celldm(4)=   0.000000  celldm(5)=   0.000000  celldm(6)=   0.000000

     crystal axes: (cart. coord. in units of alat)
               a(1) = (   1.000000   0.000000   0.000000 )  
               a(2) = (   0.000000   1.000000   0.000000 )  
               a(3) = (   0.000000   0.000000   1.000000 )  

     reciprocal axes: (cart. coord. in units 2 pi/alat)
               b(1) = (  1.000000  0.000000  0.000000 )  
               b(2) = (  0.000000  1.000000  0.000000 )  
               b(3) = (  0.000000  0.000000  1.000000 )  


     PseudoPot. # 1 for C  read from file:
     /util/academic/espresso/6.2.1/pseudopotentials/upf_files/C.pbe-n-rrkjus_psl.0.1.UPF
     MD5 check sum: ab446d787031eba755f1d5ee46644bb0
     Pseudo is Ultrasoft + core correction, Zval =  4.0
     Generated using "atomic" code by A. Dal Corso v.5.0.2 svn rev. 9415
     Using radial grid of 1073 points,  4 beta functions with: 
                l(1) =   0
                l(2) =   0
                l(3) =   1
                l(4) =   1
     Q(r) pseudized with 0 coefficients 


     PseudoPot. # 2 for H  read from file:
     /util/academic/espresso/6.2.1/pseudopotentials/upf_files/H.pbe-rrkjus_psl.0.1.UPF
     MD5 check sum: bd57da0722753ddfd9833a65b40bb853
     Pseudo is Ultrasoft, Zval =  1.0
     Generated using "atomic" code by A. Dal Corso v.5.0.2 svn rev. 9415
     Using radial grid of  929 points,  2 beta functions with: 
                l(1) =   0
                l(2) =   0
     Q(r) pseudized with 0 coefficients 


     PseudoPot. # 3 for Ir read from file:
     /util/academic/espresso/6.2.1/pseudopotentials/upf_files/Ir.pbe-n-rrkjus_psl.0.2.3.UPF
     MD5 check sum: 0d5bc36db6a0bde07ee800c0d8fcbb77
     Pseudo is Ultrasoft + core correction, Zval =  9.0
     Generated using "atomic" code by A. Dal Corso v.5.0.2 svn rev. 9415
     Using radial grid of 1277 points,  6 beta functions with: 
                l(1) =   0
                l(2) =   0
                l(3) =   1
                l(4) =   1
                l(5) =   2
                l(6) =   2
     Q(r) pseudized with 0 coefficients 


     PseudoPot. # 4 for N  read from file:
     /util/academic/espresso/6.2.1/pseudopotentials/upf_files/N.pbe-n-rrkjus_psl.0.1.UPF
     MD5 check sum: ed8b6a90f28a53b7d71920e7015d2dd6
     Pseudo is Ultrasoft + core correction, Zval =  5.0
     Generated using "atomic" code by A. Dal Corso v.5.0.2 svn rev. 9415
     Using radial grid of 1085 points,  4 beta functions with: 
                l(1) =   0
                l(2) =   0
                l(3) =   1
                l(4) =   1
     Q(r) pseudized with 0 coefficients 


     atomic species   valence    mass     pseudopotential
        C              4.00    12.01000     C ( 1.00)
        H              1.00     1.00700     H ( 1.00)
        Ir             9.00   192.21700     Ir( 1.00)
        N              5.00    14.00600     N ( 1.00)

     No symmetry found



   Cartesian axes

     site n.     atom                  positions (alat units)
         1           Ir  tau(   1) = (   0.0003277   0.0066596   0.0043596  )
         2           N   tau(   2) = (   0.1700928  -0.1912494  -0.1610409  )
         3           N   tau(   3) = (  -0.2387205   0.0042209  -0.1865686  )
         4           N   tau(   4) = (   0.1037037   0.2158083  -0.1699119  )
         5           C   tau(   5) = (  -0.0856875   0.2257686   0.1553501  )
         6           C   tau(   6) = (   0.2087286  -0.0510097   0.1937998  )
         7           C   tau(   7) = (   0.2816028  -0.2842376  -0.0478828  )
         8           C   tau(   8) = (   0.3167786  -0.2144080   0.1446268  )
         9           C   tau(   9) = (  -0.1583618  -0.1965342   0.1246779  )
        10           C   tau(  10) = (   0.0666068   0.3838860  -0.1029683  )
        11           C   tau(  11) = (  -0.0168660   0.3893412   0.0846596  )
        12           C   tau(  12) = (  -0.3480865  -0.1378504  -0.1435426  )
        13           C   tau(  13) = (  -0.3153700  -0.2429355   0.0221011  )
        14           H   tau(  14) = (   0.2515828   0.0444180   0.3005189  )
        15           H   tau(  15) = (   0.4088995  -0.2718810   0.2429054  )
        16           H   tau(  16) = (   0.3841693  -0.3939906  -0.1061168  )
        17           H   tau(  17) = (   0.1074246   0.4956525  -0.1941989  )
        18           H   tau(  18) = (  -0.0186382   0.5221696   0.1559285  )
        19           H   tau(  19) = (  -0.1601730   0.2146332   0.2890872  )
        20           H   tau(  20) = (  -0.3929692  -0.3729410   0.0692517  )
        21           H   tau(  21) = (  -0.1355604  -0.2709445   0.2730861  )
        22           H   tau(  22) = (  -0.4742433  -0.1683514  -0.2280178  )
        23           H   tau(  23) = (   0.1924523  -0.2320538  -0.3039237  )
        24           H   tau(  24) = (   0.1432607   0.2225835  -0.3037766  )
        25           H   tau(  25) = (  -0.2524996   0.0655726  -0.3155886  )

     number of k points=     1  gaussian smearing, width (Ry)=  0.0100
                       cart. coord. in units 2pi/alat
        k(    1) = (   0.0000000   0.0000000   0.0000000), wk =   2.0000000

     Dense  grid:   104401 G-vectors     FFT dimensions: (  75,  75,  75)

     Smooth grid:    26318 G-vectors     FFT dimensions: (  48,  48,  48)

     Estimated max dynamical RAM per process >      46.16 MB

     Estimated total dynamical RAM >     553.92 MB

     Check: negative/imaginary core charge=   -0.000002    0.000000

     Initial potential from superposition of free atoms

     starting charge   71.99934, renormalised to   72.00000
     Starting wfc are   69 randomized atomic wfcs +   31 random wfc

     total cpu time spent up to now is        2.3 secs

     Self-consistent Calculation

     iteration #  1     ecut=    30.00 Ry     beta= 0.30
     Davidson diagonalization with overlap
     ethr =  1.00E-02,  avg # of iterations =  5.0

     total cpu time spent up to now is        2.7 secs

     total energy              =    -243.64646870 Ry
     Harris-Foulkes estimate   =    -244.93139170 Ry
     estimated scf accuracy    <       3.36720934 Ry

     iteration #  2     ecut=    30.00 Ry     beta= 0.30
     Davidson diagonalization with overlap
     ethr =  4.68E-03,  avg # of iterations =  1.0

     total cpu time spent up to now is        2.9 secs

     total energy              =    -243.75825235 Ry
     Harris-Foulkes estimate   =    -244.08129883 Ry
     estimated scf accuracy    <       0.93369962 Ry

     iteration #  3     ecut=    30.00 Ry     beta= 0.30
     Davidson diagonalization with overlap
     ethr =  1.30E-03,  avg # of iterations =  3.0

     total cpu time spent up to now is        3.2 secs

     total energy              =    -243.79512537 Ry
     Harris-Foulkes estimate   =    -243.90825828 Ry
     estimated scf accuracy    <       0.35731666 Ry

     iteration #  4     ecut=    30.00 Ry     beta= 0.30
     Davidson diagonalization with overlap
     ethr =  4.96E-04,  avg # of iterations =  6.0

     negative rho (up, down):  1.319E-08 0.000E+00

     total cpu time spent up to now is        3.5 secs

     total energy              =    -243.82191769 Ry
     Harris-Foulkes estimate   =    -243.83986399 Ry
     estimated scf accuracy    <       0.05458757 Ry

     iteration #  5     ecut=    30.00 Ry     beta= 0.30
     Davidson diagonalization with overlap
     ethr =  7.58E-05,  avg # of iterations = 13.0

     negative rho (up, down):  1.271E-07 0.000E+00

     total cpu time spent up to now is        3.9 secs

     total energy              =    -243.82886714 Ry
     Harris-Foulkes estimate   =    -243.83005390 Ry
     estimated scf accuracy    <       0.00586045 Ry

     iteration #  6     ecut=    30.00 Ry     beta= 0.30
     Davidson diagonalization with overlap
     ethr =  8.14E-06,  avg # of iterations =  5.0

     negative rho (up, down):  1.395E-08 0.000E+00

     total cpu time spent up to now is        4.2 secs

     total energy              =    -243.82962571 Ry
     Harris-Foulkes estimate   =    -243.82975771 Ry
     estimated scf accuracy    <       0.00087588 Ry

     iteration #  7     ecut=    30.00 Ry     beta= 0.30
     Davidson diagonalization with overlap
     ethr =  1.22E-06,  avg # of iterations =  3.0

     total cpu time spent up to now is        4.4 secs

     total energy              =    -243.82971115 Ry
     Harris-Foulkes estimate   =    -243.82969607 Ry
     estimated scf accuracy    <       0.00013295 Ry

     iteration #  8     ecut=    30.00 Ry     beta= 0.30
     Davidson diagonalization with overlap
     ethr =  1.85E-07,  avg # of iterations =  2.0

     total cpu time spent up to now is        4.7 secs

     End of self-consistent calculation

          k = 0.0000 0.0000 0.0000 (  3310 PWs)   bands (ev):

   -18.4879 -18.1934 -18.0021 -14.2471 -14.0307 -13.6507 -11.3028 -10.8514
   -10.4687  -8.9970  -8.6776  -8.4217  -8.2764  -7.8689  -7.6572  -6.3919
    -5.8876  -5.8538  -5.6485  -5.1333  -5.0553  -4.7664  -4.2673  -4.1124
    -3.9236  -3.6814  -3.5721  -2.3374  -2.2800  -2.0872  -1.7452  -1.3053
    -1.2539  -0.3794  -0.3466   0.2707   2.1270   2.5285   3.0194   3.1528
     4.6020   4.8937   5.1602   5.4073   5.5102   5.8349   5.9375   6.1070
     6.3816   6.5965   7.0214   7.4364   7.6884   7.8930   8.1231   8.3981
     8.5105   8.7404   9.2439   9.3574   9.7035   9.9209  10.1827  10.6244
    10.7567  11.0076  11.0863  11.3047  11.6705  11.7806  12.0158  12.2256
    12.4134  12.4385  12.6310  12.9068  13.0646  13.1570  13.3314  13.5979
    13.7811  14.1038  14.1928  14.3585  14.5527  14.6255  14.7068  14.9050
    15.0002  15.2860  15.4630  15.6498  15.9677  16.0682  16.1978  16.4344
    16.5624  16.8541  16.9517  17.0810

     the Fermi energy is     0.9894 ev

!    total energy              =    -243.82977144 Ry
     Harris-Foulkes estimate   =    -243.82973246 Ry
     estimated scf accuracy    <       0.00002020 Ry

     The total energy is the sum of the following terms:

     one-electron contribution =    -328.71006967 Ry
     hartree contribution      =     188.51785817 Ry
     xc contribution           =     -93.23030390 Ry
     ewald contribution        =     -10.40725603 Ry
     smearing contrib. (-TS)   =      -0.00000000 Ry

     convergence has been achieved in   8 iterations

     Writing output data file x0.save
 
     init_run     :      0.36s CPU      0.41s WALL (       1 calls)
     electrons    :      2.26s CPU      2.36s WALL (       1 calls)

     Called by init_run:
     wfcinit      :      0.03s CPU      0.03s WALL (       1 calls)
     potinit      :      0.07s CPU      0.07s WALL (       1 calls)

     Called by electrons:
     c_bands      :      1.20s CPU      1.23s WALL (       8 calls)
     sum_band     :      0.49s CPU      0.50s WALL (       8 calls)
     v_of_rho     :      0.25s CPU      0.25s WALL (       9 calls)
     newd         :      0.32s CPU      0.33s WALL (       9 calls)
     mix_rho      :      0.03s CPU      0.03s WALL (       8 calls)

     Called by c_bands:
     init_us_2    :      0.01s CPU      0.01s WALL (      17 calls)
     regterg      :      1.19s CPU      1.21s WALL (       8 calls)

     Called by sum_band:
     sum_band:bec :      0.00s CPU      0.00s WALL (       8 calls)
     addusdens    :      0.34s CPU      0.34s WALL (       8 calls)

     Called by *egterg:
     h_psi        :      0.47s CPU      0.49s WALL (      47 calls)
     s_psi        :      0.01s CPU      0.01s WALL (      47 calls)
     g_psi        :      0.00s CPU      0.00s WALL (      38 calls)
     rdiaghg      :      0.58s CPU      0.59s WALL (      46 calls)

     Called by h_psi:
     h_psi:pot    :      0.47s CPU      0.49s WALL (      47 calls)
     h_psi:calbec :      0.02s CPU      0.02s WALL (      47 calls)
     vloc_psi     :      0.44s CPU      0.45s WALL (      47 calls)
     add_vuspsi   :      0.01s CPU      0.01s WALL (      47 calls)

     General routines
     calbec       :      0.03s CPU      0.03s WALL (      55 calls)
     fft          :      0.26s CPU      0.26s WALL (     140 calls)
     ffts         :      0.01s CPU      0.01s WALL (      17 calls)
     fftw         :      0.46s CPU      0.48s WALL (    2488 calls)
     interpolate  :      0.04s CPU      0.04s WALL (      17 calls)
 
     Parallel routines
     fft_scatt_xy :      0.04s CPU      0.04s WALL (    2645 calls)
     fft_scatt_yz :      0.14s CPU      0.15s WALL (    2645 calls)
 
     PWSCF        :     4.08s CPU         5.14s WALL

 
   This run was terminated on:  18:59: 7  22Jun2021            

=------------------------------------------------------------------------------=
   JOB DONE.
=------------------------------------------------------------------------------=
