
     Program PWSCF v.6.2 (svn rev. 14038) starts on 22Jun2021 at 18:58:24 

     This program is part of the open-source Quantum ESPRESSO suite
     for quantum simulation of materials; please cite
         "P. Giannozzi et al., J. Phys.:Condens. Matter 21 395502 (2009);
         "P. Giannozzi et al., J. Phys.:Condens. Matter 29 465901 (2017);
          URL http://www.quantum-espresso.org", 
     in publications or presentations arising from this work. More details at
     http://www.quantum-espresso.org/quote

     Parallel version (MPI), running on    12 processors

     MPI processes distributed on     1 nodes
     R & G space division:  proc/nbgrp/npool/nimage =      12
     Waiting for input...
     Reading input from standard input

     Current dimensions of program PWSCF are:
     Max number of different atomic species (ntypx) = 10
     Max number of k-points (npk) =  40000
     Max angular momentum in pseudopotentials (lmaxx) =  3
               file Ir.pbe-n-rrkjus_psl.0.2.3.UPF: wavefunction(s)  5D renormalized

     gamma-point specific algorithms are used

     Subspace diagonalization in iterative solution of the eigenvalue problem:
     a serial algorithm will be used

 
     Parallelization info
     --------------------
     sticks:   dense  smooth     PW     G-vecs:    dense   smooth      PW
     Min         353     140     34                17398     4383     546
     Max         356     144     36                17404     4390     556
     Sum        4257    1701    421               208801    52635    6619
 


     bravais-lattice index     =            0
     lattice parameter (alat)  =      13.3514  a.u.
     unit-cell volume          =    2380.0325 (a.u.)^3
     number of atoms/cell      =           25
     number of atomic types    =            4
     number of electrons       =        72.00
     number of Kohn-Sham states=          100
     kinetic-energy cutoff     =      30.0000  Ry
     charge density cutoff     =     300.0000  Ry
     convergence threshold     =      1.0E-04
     mixing beta               =       0.3000
     number of iterations used =            8  plain     mixing
     Exchange-correlation      = PBE ( 1  4  3  4 0 0)

     celldm(1)=  13.351425  celldm(2)=   0.000000  celldm(3)=   0.000000
     celldm(4)=   0.000000  celldm(5)=   0.000000  celldm(6)=   0.000000

     crystal axes: (cart. coord. in units of alat)
               a(1) = (   1.000000   0.000000   0.000000 )  
               a(2) = (   0.000000   1.000000   0.000000 )  
               a(3) = (   0.000000   0.000000   1.000000 )  

     reciprocal axes: (cart. coord. in units 2 pi/alat)
               b(1) = (  1.000000  0.000000  0.000000 )  
               b(2) = (  0.000000  1.000000  0.000000 )  
               b(3) = (  0.000000  0.000000  1.000000 )  


     PseudoPot. # 1 for C  read from file:
     /util/academic/espresso/6.2.1/pseudopotentials/upf_files/C.pbe-n-rrkjus_psl.0.1.UPF
     MD5 check sum: ab446d787031eba755f1d5ee46644bb0
     Pseudo is Ultrasoft + core correction, Zval =  4.0
     Generated using "atomic" code by A. Dal Corso v.5.0.2 svn rev. 9415
     Using radial grid of 1073 points,  4 beta functions with: 
                l(1) =   0
                l(2) =   0
                l(3) =   1
                l(4) =   1
     Q(r) pseudized with 0 coefficients 


     PseudoPot. # 2 for H  read from file:
     /util/academic/espresso/6.2.1/pseudopotentials/upf_files/H.pbe-rrkjus_psl.0.1.UPF
     MD5 check sum: bd57da0722753ddfd9833a65b40bb853
     Pseudo is Ultrasoft, Zval =  1.0
     Generated using "atomic" code by A. Dal Corso v.5.0.2 svn rev. 9415
     Using radial grid of  929 points,  2 beta functions with: 
                l(1) =   0
                l(2) =   0
     Q(r) pseudized with 0 coefficients 


     PseudoPot. # 3 for Ir read from file:
     /util/academic/espresso/6.2.1/pseudopotentials/upf_files/Ir.pbe-n-rrkjus_psl.0.2.3.UPF
     MD5 check sum: 0d5bc36db6a0bde07ee800c0d8fcbb77
     Pseudo is Ultrasoft + core correction, Zval =  9.0
     Generated using "atomic" code by A. Dal Corso v.5.0.2 svn rev. 9415
     Using radial grid of 1277 points,  6 beta functions with: 
                l(1) =   0
                l(2) =   0
                l(3) =   1
                l(4) =   1
                l(5) =   2
                l(6) =   2
     Q(r) pseudized with 0 coefficients 


     PseudoPot. # 4 for N  read from file:
     /util/academic/espresso/6.2.1/pseudopotentials/upf_files/N.pbe-n-rrkjus_psl.0.1.UPF
     MD5 check sum: ed8b6a90f28a53b7d71920e7015d2dd6
     Pseudo is Ultrasoft + core correction, Zval =  5.0
     Generated using "atomic" code by A. Dal Corso v.5.0.2 svn rev. 9415
     Using radial grid of 1085 points,  4 beta functions with: 
                l(1) =   0
                l(2) =   0
                l(3) =   1
                l(4) =   1
     Q(r) pseudized with 0 coefficients 


     atomic species   valence    mass     pseudopotential
        C              4.00    12.01000     C ( 1.00)
        H              1.00     1.00700     H ( 1.00)
        Ir             9.00   192.21700     Ir( 1.00)
        N              5.00    14.00600     N ( 1.00)

     No symmetry found



   Cartesian axes

     site n.     atom                  positions (alat units)
         1           Ir  tau(   1) = (   0.0001058   0.0064700   0.0041063  )
         2           N   tau(   2) = (   0.1641300  -0.1899587  -0.1624801  )
         3           N   tau(   3) = (  -0.2392207   0.0026165  -0.1826446  )
         4           N   tau(   4) = (   0.1042483   0.2121862  -0.1706416  )
         5           C   tau(   5) = (  -0.0855931   0.2230221   0.1503765  )
         6           C   tau(   6) = (   0.2150707  -0.0527018   0.1788562  )
         7           C   tau(   7) = (   0.2786625  -0.2834221  -0.0487603  )
         8           C   tau(   8) = (   0.3166613  -0.2148656   0.1449103  )
         9           C   tau(   9) = (  -0.1555024  -0.1942900   0.1296725  )
        10           C   tau(  10) = (   0.0671552   0.3819786  -0.1000448  )
        11           C   tau(  11) = (  -0.0071238   0.3914756   0.0824308  )
        12           C   tau(  12) = (  -0.3502942  -0.1341276  -0.1422325  )
        13           C   tau(  13) = (  -0.3184619  -0.2371408   0.0356393  )
        14           H   tau(  14) = (   0.2393703   0.0450183   0.3045859  )
        15           H   tau(  15) = (   0.4194364  -0.2826908   0.2358286  )
        16           H   tau(  16) = (   0.3667733  -0.4006404  -0.1049719  )
        17           H   tau(  17) = (   0.1040401   0.5013924  -0.1797935  )
        18           H   tau(  18) = (  -0.0134985   0.5160537   0.1692793  )
        19           H   tau(  19) = (  -0.1771236   0.2225737   0.2822776  )
        20           H   tau(  20) = (  -0.3880421  -0.3708129   0.0720249  )
        21           H   tau(  21) = (  -0.1221146  -0.2830808   0.2550016  )
        22           H   tau(  22) = (  -0.4801738  -0.1720469  -0.2151208  )
        23           H   tau(  23) = (   0.1962351  -0.2132195  -0.3008298  )
        24           H   tau(  24) = (   0.1578199   0.2195806  -0.3113862  )
        25           H   tau(  25) = (  -0.2582656   0.0693688  -0.3041184  )

     number of k points=     1  gaussian smearing, width (Ry)=  0.0100
                       cart. coord. in units 2pi/alat
        k(    1) = (   0.0000000   0.0000000   0.0000000), wk =   2.0000000

     Dense  grid:   104401 G-vectors     FFT dimensions: (  75,  75,  75)

     Smooth grid:    26318 G-vectors     FFT dimensions: (  48,  48,  48)

     Estimated max dynamical RAM per process >      46.16 MB

     Estimated total dynamical RAM >     553.92 MB

     Check: negative/imaginary core charge=   -0.000002    0.000000

     Initial potential from superposition of free atoms

     starting charge   71.99934, renormalised to   72.00000
     Starting wfc are   69 randomized atomic wfcs +   31 random wfc

     total cpu time spent up to now is        2.6 secs

     Self-consistent Calculation

     iteration #  1     ecut=    30.00 Ry     beta= 0.30
     Davidson diagonalization with overlap
     ethr =  1.00E-02,  avg # of iterations =  5.0

     total cpu time spent up to now is        3.1 secs

     total energy              =    -243.66160276 Ry
     Harris-Foulkes estimate   =    -244.92766668 Ry
     estimated scf accuracy    <       3.32402882 Ry

     iteration #  2     ecut=    30.00 Ry     beta= 0.30
     Davidson diagonalization with overlap
     ethr =  4.62E-03,  avg # of iterations =  1.0

     total cpu time spent up to now is        3.3 secs

     total energy              =    -243.76790576 Ry
     Harris-Foulkes estimate   =    -244.07634893 Ry
     estimated scf accuracy    <       0.88540400 Ry

     iteration #  3     ecut=    30.00 Ry     beta= 0.30
     Davidson diagonalization with overlap
     ethr =  1.23E-03,  avg # of iterations =  5.0

     total cpu time spent up to now is        3.5 secs

     total energy              =    -243.80318847 Ry
     Harris-Foulkes estimate   =    -243.91018200 Ry
     estimated scf accuracy    <       0.34015428 Ry

     iteration #  4     ecut=    30.00 Ry     beta= 0.30
     Davidson diagonalization with overlap
     ethr =  4.72E-04,  avg # of iterations =  3.0

     negative rho (up, down):  3.382E-08 0.000E+00

     total cpu time spent up to now is        3.8 secs

     total energy              =    -243.82582934 Ry
     Harris-Foulkes estimate   =    -243.84392387 Ry
     estimated scf accuracy    <       0.05421613 Ry

     iteration #  5     ecut=    30.00 Ry     beta= 0.30
     Davidson diagonalization with overlap
     ethr =  7.53E-05,  avg # of iterations =  8.0

     negative rho (up, down):  6.978E-08 0.000E+00

     total cpu time spent up to now is        4.1 secs

     total energy              =    -243.83457736 Ry
     Harris-Foulkes estimate   =    -243.83554431 Ry
     estimated scf accuracy    <       0.00525185 Ry

     iteration #  6     ecut=    30.00 Ry     beta= 0.30
     Davidson diagonalization with overlap
     ethr =  7.29E-06,  avg # of iterations =  2.0

     negative rho (up, down):  2.448E-08 0.000E+00

     total cpu time spent up to now is        4.4 secs

     total energy              =    -243.83495245 Ry
     Harris-Foulkes estimate   =    -243.83506227 Ry
     estimated scf accuracy    <       0.00090086 Ry

     iteration #  7     ecut=    30.00 Ry     beta= 0.30
     Davidson diagonalization with overlap
     ethr =  1.25E-06,  avg # of iterations =  4.0

     total cpu time spent up to now is        4.6 secs

     End of self-consistent calculation

          k = 0.0000 0.0000 0.0000 (  3310 PWs)   bands (ev):

   -18.4471 -18.2057 -17.9140 -14.2184 -13.9417 -13.7471 -11.3647 -10.8259
   -10.4290  -9.0812  -8.5672  -8.2910  -8.2629  -7.9133  -7.6562  -6.4466
    -5.9979  -5.7910  -5.5511  -5.1201  -5.0831  -4.8753  -4.1977  -4.0584
    -3.9508  -3.6370  -3.5270  -2.4264  -2.2757  -2.1281  -1.7487  -1.4702
    -1.2876  -0.4834  -0.2418   0.3107   2.1599   2.6004   2.9726   3.2068
     4.6002   4.9229   5.1706   5.4181   5.5474   5.8058   6.0453   6.2070
     6.5241   6.5792   6.9640   7.5470   7.7649   7.8135   8.1950   8.4150
     8.5805   8.8035   9.2412   9.2880   9.6579   9.7700  10.0108  10.5928
    10.8667  11.0497  11.0911  11.4633  11.5553  11.6450  12.0330  12.1951
    12.3513  12.6165  12.6838  12.8513  13.0362  13.1478  13.4437  13.4540
    13.9387  14.1040  14.3080  14.4367  14.4972  14.5715  14.6001  14.9787
    15.0252  15.3165  15.3367  15.7824  15.8826  16.0756  16.3399  16.5030
    16.6489  16.8366  16.8659  17.0041

     the Fermi energy is     1.5283 ev

!    total energy              =    -243.83509010 Ry
     Harris-Foulkes estimate   =    -243.83503891 Ry
     estimated scf accuracy    <       0.00009177 Ry

     The total energy is the sum of the following terms:

     one-electron contribution =    -333.78365702 Ry
     hartree contribution      =     191.02961630 Ry
     xc contribution           =     -93.24509353 Ry
     ewald contribution        =      -7.83595585 Ry
     smearing contrib. (-TS)   =      -0.00000000 Ry

     convergence has been achieved in   7 iterations

     Writing output data file x0.save
 
     init_run     :      0.38s CPU      0.44s WALL (       1 calls)
     electrons    :      1.90s CPU      2.04s WALL (       1 calls)

     Called by init_run:
     wfcinit      :      0.03s CPU      0.04s WALL (       1 calls)
     potinit      :      0.08s CPU      0.09s WALL (       1 calls)

     Called by electrons:
     c_bands      :      0.98s CPU      1.02s WALL (       7 calls)
     sum_band     :      0.43s CPU      0.44s WALL (       7 calls)
     v_of_rho     :      0.22s CPU      0.23s WALL (       8 calls)
     newd         :      0.28s CPU      0.30s WALL (       8 calls)
     mix_rho      :      0.03s CPU      0.03s WALL (       7 calls)

     Called by c_bands:
     init_us_2    :      0.00s CPU      0.00s WALL (      15 calls)
     regterg      :      0.97s CPU      1.01s WALL (       7 calls)

     Called by sum_band:
     sum_band:bec :      0.00s CPU      0.00s WALL (       7 calls)
     addusdens    :      0.29s CPU      0.30s WALL (       7 calls)

     Called by *egterg:
     h_psi        :      0.43s CPU      0.45s WALL (      36 calls)
     s_psi        :      0.01s CPU      0.01s WALL (      36 calls)
     g_psi        :      0.00s CPU      0.00s WALL (      28 calls)
     rdiaghg      :      0.44s CPU      0.45s WALL (      35 calls)

     Called by h_psi:
     h_psi:pot    :      0.42s CPU      0.45s WALL (      36 calls)
     h_psi:calbec :      0.02s CPU      0.02s WALL (      36 calls)
     vloc_psi     :      0.40s CPU      0.41s WALL (      36 calls)
     add_vuspsi   :      0.01s CPU      0.01s WALL (      36 calls)

     General routines
     calbec       :      0.02s CPU      0.02s WALL (      43 calls)
     fft          :      0.24s CPU      0.24s WALL (     124 calls)
     ffts         :      0.01s CPU      0.01s WALL (      15 calls)
     fftw         :      0.42s CPU      0.44s WALL (    2192 calls)
     interpolate  :      0.04s CPU      0.04s WALL (      15 calls)
 
     Parallel routines
     fft_scatt_xy :      0.04s CPU      0.04s WALL (    2331 calls)
     fft_scatt_yz :      0.13s CPU      0.13s WALL (    2331 calls)
 
     PWSCF        :     3.77s CPU         5.30s WALL

 
   This run was terminated on:  18:58:30  22Jun2021            

=------------------------------------------------------------------------------=
   JOB DONE.
=------------------------------------------------------------------------------=
