
     Program PWSCF v.6.2 (svn rev. 14038) starts on 22Jun2021 at 18:58:24 

     This program is part of the open-source Quantum ESPRESSO suite
     for quantum simulation of materials; please cite
         "P. Giannozzi et al., J. Phys.:Condens. Matter 21 395502 (2009);
         "P. Giannozzi et al., J. Phys.:Condens. Matter 29 465901 (2017);
          URL http://www.quantum-espresso.org", 
     in publications or presentations arising from this work. More details at
     http://www.quantum-espresso.org/quote

     Parallel version (MPI), running on    12 processors

     MPI processes distributed on     1 nodes
     R & G space division:  proc/nbgrp/npool/nimage =      12
     Waiting for input...
     Reading input from standard input

     Current dimensions of program PWSCF are:
     Max number of different atomic species (ntypx) = 10
     Max number of k-points (npk) =  40000
     Max angular momentum in pseudopotentials (lmaxx) =  3
               file Ir.pbe-n-rrkjus_psl.0.2.3.UPF: wavefunction(s)  5D renormalized

     gamma-point specific algorithms are used

     Subspace diagonalization in iterative solution of the eigenvalue problem:
     a serial algorithm will be used

 
     Parallelization info
     --------------------
     sticks:   dense  smooth     PW     G-vecs:    dense   smooth      PW
     Min         353     140     34                17398     4383     546
     Max         356     144     36                17404     4390     556
     Sum        4257    1701    421               208801    52635    6619
 


     bravais-lattice index     =            0
     lattice parameter (alat)  =      13.3514  a.u.
     unit-cell volume          =    2380.0325 (a.u.)^3
     number of atoms/cell      =           25
     number of atomic types    =            4
     number of electrons       =        72.00
     number of Kohn-Sham states=          100
     kinetic-energy cutoff     =      30.0000  Ry
     charge density cutoff     =     300.0000  Ry
     convergence threshold     =      1.0E-04
     mixing beta               =       0.3000
     number of iterations used =            8  plain     mixing
     Exchange-correlation      = PBE ( 1  4  3  4 0 0)

     celldm(1)=  13.351425  celldm(2)=   0.000000  celldm(3)=   0.000000
     celldm(4)=   0.000000  celldm(5)=   0.000000  celldm(6)=   0.000000

     crystal axes: (cart. coord. in units of alat)
               a(1) = (   1.000000   0.000000   0.000000 )  
               a(2) = (   0.000000   1.000000   0.000000 )  
               a(3) = (   0.000000   0.000000   1.000000 )  

     reciprocal axes: (cart. coord. in units 2 pi/alat)
               b(1) = (  1.000000  0.000000  0.000000 )  
               b(2) = (  0.000000  1.000000  0.000000 )  
               b(3) = (  0.000000  0.000000  1.000000 )  


     PseudoPot. # 1 for C  read from file:
     /util/academic/espresso/6.2.1/pseudopotentials/upf_files/C.pbe-n-rrkjus_psl.0.1.UPF
     MD5 check sum: ab446d787031eba755f1d5ee46644bb0
     Pseudo is Ultrasoft + core correction, Zval =  4.0
     Generated using "atomic" code by A. Dal Corso v.5.0.2 svn rev. 9415
     Using radial grid of 1073 points,  4 beta functions with: 
                l(1) =   0
                l(2) =   0
                l(3) =   1
                l(4) =   1
     Q(r) pseudized with 0 coefficients 


     PseudoPot. # 2 for H  read from file:
     /util/academic/espresso/6.2.1/pseudopotentials/upf_files/H.pbe-rrkjus_psl.0.1.UPF
     MD5 check sum: bd57da0722753ddfd9833a65b40bb853
     Pseudo is Ultrasoft, Zval =  1.0
     Generated using "atomic" code by A. Dal Corso v.5.0.2 svn rev. 9415
     Using radial grid of  929 points,  2 beta functions with: 
                l(1) =   0
                l(2) =   0
     Q(r) pseudized with 0 coefficients 


     PseudoPot. # 3 for Ir read from file:
     /util/academic/espresso/6.2.1/pseudopotentials/upf_files/Ir.pbe-n-rrkjus_psl.0.2.3.UPF
     MD5 check sum: 0d5bc36db6a0bde07ee800c0d8fcbb77
     Pseudo is Ultrasoft + core correction, Zval =  9.0
     Generated using "atomic" code by A. Dal Corso v.5.0.2 svn rev. 9415
     Using radial grid of 1277 points,  6 beta functions with: 
                l(1) =   0
                l(2) =   0
                l(3) =   1
                l(4) =   1
                l(5) =   2
                l(6) =   2
     Q(r) pseudized with 0 coefficients 


     PseudoPot. # 4 for N  read from file:
     /util/academic/espresso/6.2.1/pseudopotentials/upf_files/N.pbe-n-rrkjus_psl.0.1.UPF
     MD5 check sum: ed8b6a90f28a53b7d71920e7015d2dd6
     Pseudo is Ultrasoft + core correction, Zval =  5.0
     Generated using "atomic" code by A. Dal Corso v.5.0.2 svn rev. 9415
     Using radial grid of 1085 points,  4 beta functions with: 
                l(1) =   0
                l(2) =   0
                l(3) =   1
                l(4) =   1
     Q(r) pseudized with 0 coefficients 


     atomic species   valence    mass     pseudopotential
        C              4.00    12.01000     C ( 1.00)
        H              1.00     1.00700     H ( 1.00)
        Ir             9.00   192.21700     Ir( 1.00)
        N              5.00    14.00600     N ( 1.00)

     No symmetry found



   Cartesian axes

     site n.     atom                  positions (alat units)
         1           Ir  tau(   1) = (   0.0003420   0.0065495   0.0044110  )
         2           N   tau(   2) = (   0.1738235  -0.1917644  -0.1593158  )
         3           N   tau(   3) = (  -0.2347120   0.0074884  -0.1835014  )
         4           N   tau(   4) = (   0.1028978   0.2219155  -0.1672710  )
         5           C   tau(   5) = (  -0.0895549   0.2238352   0.1581843  )
         6           C   tau(   6) = (   0.2082165  -0.0549063   0.1910693  )
         7           C   tau(   7) = (   0.2857942  -0.2852446  -0.0471469  )
         8           C   tau(   8) = (   0.3077452  -0.2130547   0.1469813  )
         9           C   tau(   9) = (  -0.1562869  -0.1975172   0.1208076  )
        10           C   tau(  10) = (   0.0666804   0.3830512  -0.1023939  )
        11           C   tau(  11) = (  -0.0229534   0.3929513   0.0858291  )
        12           C   tau(  12) = (  -0.3449009  -0.1361393  -0.1444756  )
        13           C   tau(  13) = (  -0.3087426  -0.2518773   0.0123861  )
        14           H   tau(  14) = (   0.2634391   0.0301220   0.3242010  )
        15           H   tau(  15) = (   0.4183943  -0.2797130   0.2483704  )
        16           H   tau(  16) = (   0.3731067  -0.3895764  -0.1142228  )
        17           H   tau(  17) = (   0.1005743   0.5059726  -0.2060558  )
        18           H   tau(  18) = (  -0.0225715   0.5309291   0.1593740  )
        19           H   tau(  19) = (  -0.1704437   0.2145484   0.2924972  )
        20           H   tau(  20) = (  -0.4027858  -0.3582818   0.0599137  )
        21           H   tau(  21) = (  -0.1301415  -0.2528129   0.2593691  )
        22           H   tau(  22) = (  -0.4741869  -0.1568110  -0.2254310  )
        23           H   tau(  23) = (   0.1573568  -0.2338135  -0.2949526  )
        24           H   tau(  24) = (   0.1347899   0.2079259  -0.3086999  )
        25           H   tau(  25) = (  -0.2530638   0.0644267  -0.3141502  )

     number of k points=     1  gaussian smearing, width (Ry)=  0.0100
                       cart. coord. in units 2pi/alat
        k(    1) = (   0.0000000   0.0000000   0.0000000), wk =   2.0000000

     Dense  grid:   104401 G-vectors     FFT dimensions: (  75,  75,  75)

     Smooth grid:    26318 G-vectors     FFT dimensions: (  48,  48,  48)

     Estimated max dynamical RAM per process >      46.16 MB

     Estimated total dynamical RAM >     553.92 MB

     Check: negative/imaginary core charge=   -0.000002    0.000000

     Initial potential from superposition of free atoms

     starting charge   71.99934, renormalised to   72.00000
     Starting wfc are   69 randomized atomic wfcs +   31 random wfc

     total cpu time spent up to now is        2.4 secs

     Self-consistent Calculation

     iteration #  1     ecut=    30.00 Ry     beta= 0.30
     Davidson diagonalization with overlap
     ethr =  1.00E-02,  avg # of iterations =  5.0

     total cpu time spent up to now is        2.7 secs

     total energy              =    -243.66518022 Ry
     Harris-Foulkes estimate   =    -244.93076965 Ry
     estimated scf accuracy    <       3.31696541 Ry

     iteration #  2     ecut=    30.00 Ry     beta= 0.30
     Davidson diagonalization with overlap
     ethr =  4.61E-03,  avg # of iterations =  1.0

     total cpu time spent up to now is        2.9 secs

     total energy              =    -243.77482642 Ry
     Harris-Foulkes estimate   =    -244.07706308 Ry
     estimated scf accuracy    <       0.86527508 Ry

     iteration #  3     ecut=    30.00 Ry     beta= 0.30
     Davidson diagonalization with overlap
     ethr =  1.20E-03,  avg # of iterations =  4.0

     total cpu time spent up to now is        3.2 secs

     total energy              =    -243.81189589 Ry
     Harris-Foulkes estimate   =    -243.91643646 Ry
     estimated scf accuracy    <       0.33823023 Ry

     iteration #  4     ecut=    30.00 Ry     beta= 0.30
     Davidson diagonalization with overlap
     ethr =  4.70E-04,  avg # of iterations =  2.0

     negative rho (up, down):  6.567E-08 0.000E+00

     total cpu time spent up to now is        3.4 secs

     total energy              =    -243.83335674 Ry
     Harris-Foulkes estimate   =    -243.85207670 Ry
     estimated scf accuracy    <       0.05511274 Ry

     iteration #  5     ecut=    30.00 Ry     beta= 0.30
     Davidson diagonalization with overlap
     ethr =  7.65E-05,  avg # of iterations =  6.0

     negative rho (up, down):  6.552E-08 0.000E+00

     total cpu time spent up to now is        3.7 secs

     total energy              =    -243.84305997 Ry
     Harris-Foulkes estimate   =    -243.84382543 Ry
     estimated scf accuracy    <       0.00469893 Ry

     iteration #  6     ecut=    30.00 Ry     beta= 0.30
     Davidson diagonalization with overlap
     ethr =  6.53E-06,  avg # of iterations =  2.0

     negative rho (up, down):  4.595E-08 0.000E+00

     total cpu time spent up to now is        3.9 secs

     total energy              =    -243.84330924 Ry
     Harris-Foulkes estimate   =    -243.84341559 Ry
     estimated scf accuracy    <       0.00090138 Ry

     iteration #  7     ecut=    30.00 Ry     beta= 0.30
     Davidson diagonalization with overlap
     ethr =  1.25E-06,  avg # of iterations =  1.0

     total cpu time spent up to now is        4.1 secs

     End of self-consistent calculation

          k = 0.0000 0.0000 0.0000 (  3310 PWs)   bands (ev):

   -18.7069 -18.3485 -17.9806 -14.2543 -13.8609 -13.7896 -11.4056 -10.7321
   -10.5805  -9.0869  -8.5938  -8.3338  -8.1684  -8.0492  -7.7751  -6.3646
    -5.9228  -5.7730  -5.4453  -5.2276  -5.0129  -4.8046  -4.3493  -4.0309
    -3.8910  -3.7211  -3.6462  -2.2787  -2.1962  -2.1050  -1.7770  -1.4646
    -1.2542  -0.3475  -0.2829   0.1613   2.1443   2.5242   3.1058   3.1650
     4.6841   5.0700   5.2340   5.3940   5.4895   5.7146   5.9226   6.1357
     6.3803   6.5847   6.9421   7.4347   7.7269   7.8234   8.1462   8.2354
     8.4880   8.7086   9.1221   9.1808   9.5859   9.8797  10.0787  10.6152
    10.7701  11.0026  11.1576  11.2054  11.6064  11.7586  11.9191  12.3707
    12.4301  12.4891  12.5526  12.8396  12.9742  13.0466  13.2574  13.7620
    13.9317  14.0503  14.3141  14.4120  14.4559  14.6828  14.7595  14.9153
    15.0223  15.2992  15.4920  15.7024  15.8831  16.1201  16.2235  16.3240
    16.5357  16.8394  16.9075  16.9402

     the Fermi energy is     1.3786 ev

!    total energy              =    -243.84345996 Ry
     Harris-Foulkes estimate   =    -243.84339599 Ry
     estimated scf accuracy    <       0.00007638 Ry

     The total energy is the sum of the following terms:

     one-electron contribution =    -330.41568996 Ry
     hartree contribution      =     189.28097339 Ry
     xc contribution           =     -93.19041040 Ry
     ewald contribution        =      -9.51833299 Ry
     smearing contrib. (-TS)   =      -0.00000000 Ry

     convergence has been achieved in   7 iterations

     Writing output data file x0.save
 
     init_run     :      0.39s CPU      0.68s WALL (       1 calls)
     electrons    :      1.65s CPU      1.74s WALL (       1 calls)

     Called by init_run:
     wfcinit      :      0.04s CPU      0.05s WALL (       1 calls)
     potinit      :      0.07s CPU      0.07s WALL (       1 calls)

     Called by electrons:
     c_bands      :      0.79s CPU      0.81s WALL (       7 calls)
     sum_band     :      0.40s CPU      0.41s WALL (       7 calls)
     v_of_rho     :      0.21s CPU      0.22s WALL (       8 calls)
     newd         :      0.27s CPU      0.53s WALL (       8 calls)
     mix_rho      :      0.02s CPU      0.02s WALL (       7 calls)

     Called by c_bands:
     init_us_2    :      0.00s CPU      0.00s WALL (      15 calls)
     regterg      :      0.78s CPU      0.80s WALL (       7 calls)

     Called by sum_band:
     sum_band:bec :      0.00s CPU      0.00s WALL (       7 calls)
     addusdens    :      0.27s CPU      0.28s WALL (       7 calls)

     Called by *egterg:
     h_psi        :      0.42s CPU      0.44s WALL (      29 calls)
     s_psi        :      0.01s CPU      0.01s WALL (      29 calls)
     g_psi        :      0.00s CPU      0.00s WALL (      21 calls)
     rdiaghg      :      0.29s CPU      0.30s WALL (      28 calls)

     Called by h_psi:
     h_psi:pot    :      0.42s CPU      0.44s WALL (      29 calls)
     h_psi:calbec :      0.02s CPU      0.02s WALL (      29 calls)
     vloc_psi     :      0.39s CPU      0.41s WALL (      29 calls)
     add_vuspsi   :      0.01s CPU      0.01s WALL (      29 calls)

     General routines
     calbec       :      0.02s CPU      0.02s WALL (      36 calls)
     fft          :      0.32s CPU      0.33s WALL (     124 calls)
     ffts         :      0.01s CPU      0.01s WALL (      15 calls)
     fftw         :      0.43s CPU      0.45s WALL (    2172 calls)
     interpolate  :      0.03s CPU      0.03s WALL (      15 calls)
 
     Parallel routines
     fft_scatt_xy :      0.03s CPU      0.04s WALL (    2311 calls)
     fft_scatt_yz :      0.30s CPU      0.31s WALL (    2311 calls)
 
     PWSCF        :     3.61s CPU         4.61s WALL

 
   This run was terminated on:  18:58:29  22Jun2021            

=------------------------------------------------------------------------------=
   JOB DONE.
=------------------------------------------------------------------------------=
