
     Program PWSCF v.6.2 (svn rev. 14038) starts on 22Jun2021 at 18:57: 7 

     This program is part of the open-source Quantum ESPRESSO suite
     for quantum simulation of materials; please cite
         "P. Giannozzi et al., J. Phys.:Condens. Matter 21 395502 (2009);
         "P. Giannozzi et al., J. Phys.:Condens. Matter 29 465901 (2017);
          URL http://www.quantum-espresso.org", 
     in publications or presentations arising from this work. More details at
     http://www.quantum-espresso.org/quote

     Parallel version (MPI), running on    12 processors

     MPI processes distributed on     1 nodes
     R & G space division:  proc/nbgrp/npool/nimage =      12
     Waiting for input...
     Reading input from standard input

     Current dimensions of program PWSCF are:
     Max number of different atomic species (ntypx) = 10
     Max number of k-points (npk) =  40000
     Max angular momentum in pseudopotentials (lmaxx) =  3
               file Ir.pbe-n-rrkjus_psl.0.2.3.UPF: wavefunction(s)  5D renormalized

     gamma-point specific algorithms are used

     Subspace diagonalization in iterative solution of the eigenvalue problem:
     a serial algorithm will be used

 
     Parallelization info
     --------------------
     sticks:   dense  smooth     PW     G-vecs:    dense   smooth      PW
     Min         353     140     34                17398     4383     546
     Max         356     144     36                17404     4390     556
     Sum        4257    1701    421               208801    52635    6619
 


     bravais-lattice index     =            0
     lattice parameter (alat)  =      13.3514  a.u.
     unit-cell volume          =    2380.0325 (a.u.)^3
     number of atoms/cell      =           25
     number of atomic types    =            4
     number of electrons       =        72.00
     number of Kohn-Sham states=          100
     kinetic-energy cutoff     =      30.0000  Ry
     charge density cutoff     =     300.0000  Ry
     convergence threshold     =      1.0E-04
     mixing beta               =       0.3000
     number of iterations used =            8  plain     mixing
     Exchange-correlation      = PBE ( 1  4  3  4 0 0)

     celldm(1)=  13.351425  celldm(2)=   0.000000  celldm(3)=   0.000000
     celldm(4)=   0.000000  celldm(5)=   0.000000  celldm(6)=   0.000000

     crystal axes: (cart. coord. in units of alat)
               a(1) = (   1.000000   0.000000   0.000000 )  
               a(2) = (   0.000000   1.000000   0.000000 )  
               a(3) = (   0.000000   0.000000   1.000000 )  

     reciprocal axes: (cart. coord. in units 2 pi/alat)
               b(1) = (  1.000000  0.000000  0.000000 )  
               b(2) = (  0.000000  1.000000  0.000000 )  
               b(3) = (  0.000000  0.000000  1.000000 )  


     PseudoPot. # 1 for C  read from file:
     /util/academic/espresso/6.2.1/pseudopotentials/upf_files/C.pbe-n-rrkjus_psl.0.1.UPF
     MD5 check sum: ab446d787031eba755f1d5ee46644bb0
     Pseudo is Ultrasoft + core correction, Zval =  4.0
     Generated using "atomic" code by A. Dal Corso v.5.0.2 svn rev. 9415
     Using radial grid of 1073 points,  4 beta functions with: 
                l(1) =   0
                l(2) =   0
                l(3) =   1
                l(4) =   1
     Q(r) pseudized with 0 coefficients 


     PseudoPot. # 2 for H  read from file:
     /util/academic/espresso/6.2.1/pseudopotentials/upf_files/H.pbe-rrkjus_psl.0.1.UPF
     MD5 check sum: bd57da0722753ddfd9833a65b40bb853
     Pseudo is Ultrasoft, Zval =  1.0
     Generated using "atomic" code by A. Dal Corso v.5.0.2 svn rev. 9415
     Using radial grid of  929 points,  2 beta functions with: 
                l(1) =   0
                l(2) =   0
     Q(r) pseudized with 0 coefficients 


     PseudoPot. # 3 for Ir read from file:
     /util/academic/espresso/6.2.1/pseudopotentials/upf_files/Ir.pbe-n-rrkjus_psl.0.2.3.UPF
     MD5 check sum: 0d5bc36db6a0bde07ee800c0d8fcbb77
     Pseudo is Ultrasoft + core correction, Zval =  9.0
     Generated using "atomic" code by A. Dal Corso v.5.0.2 svn rev. 9415
     Using radial grid of 1277 points,  6 beta functions with: 
                l(1) =   0
                l(2) =   0
                l(3) =   1
                l(4) =   1
                l(5) =   2
                l(6) =   2
     Q(r) pseudized with 0 coefficients 


     PseudoPot. # 4 for N  read from file:
     /util/academic/espresso/6.2.1/pseudopotentials/upf_files/N.pbe-n-rrkjus_psl.0.1.UPF
     MD5 check sum: ed8b6a90f28a53b7d71920e7015d2dd6
     Pseudo is Ultrasoft + core correction, Zval =  5.0
     Generated using "atomic" code by A. Dal Corso v.5.0.2 svn rev. 9415
     Using radial grid of 1085 points,  4 beta functions with: 
                l(1) =   0
                l(2) =   0
                l(3) =   1
                l(4) =   1
     Q(r) pseudized with 0 coefficients 


     atomic species   valence    mass     pseudopotential
        C              4.00    12.01000     C ( 1.00)
        H              1.00     1.00700     H ( 1.00)
        Ir             9.00   192.21700     Ir( 1.00)
        N              5.00    14.00600     N ( 1.00)

     No symmetry found



   Cartesian axes

     site n.     atom                  positions (alat units)
         1           Ir  tau(   1) = (   0.0007827   0.0035437   0.0010252  )
         2           N   tau(   2) = (   0.1552848  -0.1929855  -0.1631873  )
         3           N   tau(   3) = (  -0.2385523   0.0037552  -0.1658843  )
         4           N   tau(   4) = (   0.1131160   0.2104244  -0.1629897  )
         5           C   tau(   5) = (  -0.0813680   0.2314715   0.1515330  )
         6           C   tau(   6) = (   0.2058103  -0.0518725   0.1818731  )
         7           C   tau(   7) = (   0.2844344  -0.2715066  -0.0613063  )
         8           C   tau(   8) = (   0.3053625  -0.2099712   0.1317196  )
         9           C   tau(   9) = (  -0.1552945  -0.1769969   0.1338245  )
        10           C   tau(  10) = (   0.0709251   0.3794441  -0.0952301  )
        11           C   tau(  11) = (  -0.0101461   0.3931227   0.0841056  )
        12           C   tau(  12) = (  -0.3550072  -0.1282290  -0.1197361  )
        13           C   tau(  13) = (  -0.3062858  -0.2373360   0.0396586  )
        14           H   tau(  14) = (   0.2547992   0.0226303   0.3016009  )
        15           H   tau(  15) = (   0.4153531  -0.2814916   0.2285806  )
        16           H   tau(  16) = (   0.3636303  -0.3924734  -0.1122837  )
        17           H   tau(  17) = (   0.0819051   0.4869226  -0.1921724  )
        18           H   tau(  18) = (  -0.0367534   0.5281634   0.1567309  )
        19           H   tau(  19) = (  -0.1429014   0.2302802   0.2968340  )
        20           H   tau(  20) = (  -0.4046888  -0.3453992   0.1117876  )
        21           H   tau(  21) = (  -0.1302024  -0.2159756   0.2775774  )
        22           H   tau(  22) = (  -0.4665330  -0.1754140  -0.2102847  )
        23           H   tau(  23) = (   0.1163311  -0.2646412  -0.2899006  )
        24           H   tau(  24) = (   0.1429307   0.2266689  -0.3017939  )
        25           H   tau(  25) = (  -0.2626650   0.0667234  -0.2914602  )

     number of k points=     1  gaussian smearing, width (Ry)=  0.0100
                       cart. coord. in units 2pi/alat
        k(    1) = (   0.0000000   0.0000000   0.0000000), wk =   2.0000000

     Dense  grid:   104401 G-vectors     FFT dimensions: (  75,  75,  75)

     Smooth grid:    26318 G-vectors     FFT dimensions: (  48,  48,  48)

     Estimated max dynamical RAM per process >      46.16 MB

     Estimated total dynamical RAM >     553.92 MB

     Check: negative/imaginary core charge=   -0.000002    0.000000

     Initial potential from superposition of free atoms

     starting charge   71.99934, renormalised to   72.00000
     Starting wfc are   69 randomized atomic wfcs +   31 random wfc

     total cpu time spent up to now is        2.6 secs

     Self-consistent Calculation

     iteration #  1     ecut=    30.00 Ry     beta= 0.30
     Davidson diagonalization with overlap
     ethr =  1.00E-02,  avg # of iterations =  5.0

     total cpu time spent up to now is        3.8 secs

     total energy              =    -243.65417074 Ry
     Harris-Foulkes estimate   =    -244.99417893 Ry
     estimated scf accuracy    <       3.50484121 Ry

     iteration #  2     ecut=    30.00 Ry     beta= 0.30
     Davidson diagonalization with overlap
     ethr =  4.87E-03,  avg # of iterations =  1.0

     total cpu time spent up to now is        4.1 secs

     total energy              =    -243.74501284 Ry
     Harris-Foulkes estimate   =    -244.05845521 Ry
     estimated scf accuracy    <       0.87252208 Ry

     iteration #  3     ecut=    30.00 Ry     beta= 0.30
     Davidson diagonalization with overlap
     ethr =  1.21E-03,  avg # of iterations =  7.0

     total cpu time spent up to now is        4.5 secs

     total energy              =    -243.78350436 Ry
     Harris-Foulkes estimate   =    -243.88847355 Ry
     estimated scf accuracy    <       0.33713620 Ry

     iteration #  4     ecut=    30.00 Ry     beta= 0.30
     Davidson diagonalization with overlap
     ethr =  4.68E-04,  avg # of iterations =  1.0

     negative rho (up, down):  2.103E-07 0.000E+00

     total cpu time spent up to now is        4.7 secs

     total energy              =    -243.80372769 Ry
     Harris-Foulkes estimate   =    -243.82318972 Ry
     estimated scf accuracy    <       0.05595277 Ry

     iteration #  5     ecut=    30.00 Ry     beta= 0.30
     Davidson diagonalization with overlap
     ethr =  7.77E-05,  avg # of iterations =  5.0

     negative rho (up, down):  1.060E-07 0.000E+00

     total cpu time spent up to now is        5.0 secs

     total energy              =    -243.81357183 Ry
     Harris-Foulkes estimate   =    -243.81423961 Ry
     estimated scf accuracy    <       0.00428662 Ry

     iteration #  6     ecut=    30.00 Ry     beta= 0.30
     Davidson diagonalization with overlap
     ethr =  5.95E-06,  avg # of iterations =  3.0

     negative rho (up, down):  4.270E-08 0.000E+00

     total cpu time spent up to now is        5.2 secs

     total energy              =    -243.81383563 Ry
     Harris-Foulkes estimate   =    -243.81395764 Ry
     estimated scf accuracy    <       0.00087815 Ry

     iteration #  7     ecut=    30.00 Ry     beta= 0.30
     Davidson diagonalization with overlap
     ethr =  1.22E-06,  avg # of iterations =  7.0

     total cpu time spent up to now is        5.5 secs

     End of self-consistent calculation

          k = 0.0000 0.0000 0.0000 (  3310 PWs)   bands (ev):

   -18.5881 -18.3213 -18.2618 -14.3849 -14.2252 -13.8845 -11.5617 -10.9274
   -10.6334  -9.1302  -8.6472  -8.4076  -8.2249  -8.0273  -7.8209  -6.6269
    -5.9474  -5.7494  -5.5755  -5.4233  -5.0323  -4.6915  -4.4268  -4.3694
    -4.0494  -3.9540  -3.6961  -2.4116  -2.1865  -2.1244  -1.6527  -1.4883
    -1.2404  -0.4314  -0.2499   0.1913   2.0419   2.6755   3.0902   3.1178
     4.8658   5.1582   5.3574   5.6258   5.7062   5.7663   6.0462   6.1966
     6.5170   6.9658   7.1299   7.5414   7.7520   7.9607   8.0797   8.3803
     8.5646   8.8133   9.0406   9.4019   9.6846  10.0046  10.1750  10.4512
    10.8582  11.0275  11.1660  11.5051  11.7346  11.7961  12.1704  12.3784
    12.5573  12.6185  12.7206  12.9993  13.0740  13.3483  13.5409  13.9368
    14.0789  14.2010  14.3236  14.5032  14.6587  14.8045  14.9472  15.0821
    15.1757  15.3440  15.5392  15.7030  15.9488  16.0781  16.3482  16.4790
    16.5969  16.8917  17.0520  17.0915

     the Fermi energy is     0.9497 ev

!    total energy              =    -243.81399075 Ry
     Harris-Foulkes estimate   =    -243.81391958 Ry
     estimated scf accuracy    <       0.00005918 Ry

     The total energy is the sum of the following terms:

     one-electron contribution =    -349.06947456 Ry
     hartree contribution      =     198.69208147 Ry
     xc contribution           =     -93.63033768 Ry
     ewald contribution        =       0.19374002 Ry
     smearing contrib. (-TS)   =      -0.00000000 Ry

     convergence has been achieved in   7 iterations

     Writing output data file x0.save
 
     init_run     :      0.41s CPU      0.81s WALL (       1 calls)
     electrons    :      2.46s CPU      2.92s WALL (       1 calls)

     Called by init_run:
     wfcinit      :      0.03s CPU      0.03s WALL (       1 calls)
     potinit      :      0.11s CPU      0.12s WALL (       1 calls)

     Called by electrons:
     c_bands      :      1.39s CPU      1.56s WALL (       7 calls)
     sum_band     :      0.52s CPU      0.61s WALL (       7 calls)
     v_of_rho     :      0.26s CPU      0.28s WALL (       8 calls)
     newd         :      0.27s CPU      0.69s WALL (       8 calls)
     mix_rho      :      0.03s CPU      0.03s WALL (       7 calls)

     Called by c_bands:
     init_us_2    :      0.00s CPU      0.00s WALL (      15 calls)
     regterg      :      1.37s CPU      1.54s WALL (       7 calls)

     Called by sum_band:
     sum_band:bec :      0.00s CPU      0.00s WALL (       7 calls)
     addusdens    :      0.26s CPU      0.31s WALL (       7 calls)

     Called by *egterg:
     h_psi        :      0.79s CPU      0.93s WALL (      37 calls)
     s_psi        :      0.01s CPU      0.01s WALL (      37 calls)
     g_psi        :      0.00s CPU      0.00s WALL (      29 calls)
     rdiaghg      :      0.45s CPU      0.46s WALL (      36 calls)

     Called by h_psi:
     h_psi:pot    :      0.78s CPU      0.93s WALL (      37 calls)
     h_psi:calbec :      0.04s CPU      0.05s WALL (      37 calls)
     vloc_psi     :      0.73s CPU      0.86s WALL (      37 calls)
     add_vuspsi   :      0.01s CPU      0.02s WALL (      37 calls)

     General routines
     calbec       :      0.05s CPU      0.05s WALL (      44 calls)
     fft          :      0.26s CPU      0.31s WALL (     124 calls)
     ffts         :      0.01s CPU      0.07s WALL (      15 calls)
     fftw         :      0.88s CPU      1.05s WALL (    2206 calls)
     interpolate  :      0.04s CPU      0.10s WALL (      15 calls)
 
     Parallel routines
     fft_scatt_xy :      0.04s CPU      0.05s WALL (    2345 calls)
     fft_scatt_yz :      0.63s CPU      0.86s WALL (    2345 calls)
 
     PWSCF        :     4.47s CPU         6.20s WALL

 
   This run was terminated on:  18:57:13  22Jun2021            

=------------------------------------------------------------------------------=
   JOB DONE.
=------------------------------------------------------------------------------=
