
     Program PWSCF v.6.2 (svn rev. 14038) starts on 22Jun2021 at 18:56:23 

     This program is part of the open-source Quantum ESPRESSO suite
     for quantum simulation of materials; please cite
         "P. Giannozzi et al., J. Phys.:Condens. Matter 21 395502 (2009);
         "P. Giannozzi et al., J. Phys.:Condens. Matter 29 465901 (2017);
          URL http://www.quantum-espresso.org", 
     in publications or presentations arising from this work. More details at
     http://www.quantum-espresso.org/quote

     Parallel version (MPI), running on    12 processors

     MPI processes distributed on     1 nodes
     R & G space division:  proc/nbgrp/npool/nimage =      12
     Waiting for input...
     Reading input from standard input

     Current dimensions of program PWSCF are:
     Max number of different atomic species (ntypx) = 10
     Max number of k-points (npk) =  40000
     Max angular momentum in pseudopotentials (lmaxx) =  3
               file Ir.pbe-n-rrkjus_psl.0.2.3.UPF: wavefunction(s)  5D renormalized

     gamma-point specific algorithms are used

     Subspace diagonalization in iterative solution of the eigenvalue problem:
     a serial algorithm will be used

 
     Parallelization info
     --------------------
     sticks:   dense  smooth     PW     G-vecs:    dense   smooth      PW
     Min         353     140     34                17398     4383     546
     Max         356     144     36                17404     4390     556
     Sum        4257    1701    421               208801    52635    6619
 


     bravais-lattice index     =            0
     lattice parameter (alat)  =      13.3514  a.u.
     unit-cell volume          =    2380.0325 (a.u.)^3
     number of atoms/cell      =           25
     number of atomic types    =            4
     number of electrons       =        72.00
     number of Kohn-Sham states=          100
     kinetic-energy cutoff     =      30.0000  Ry
     charge density cutoff     =     300.0000  Ry
     convergence threshold     =      1.0E-04
     mixing beta               =       0.3000
     number of iterations used =            8  plain     mixing
     Exchange-correlation      = PBE ( 1  4  3  4 0 0)

     celldm(1)=  13.351425  celldm(2)=   0.000000  celldm(3)=   0.000000
     celldm(4)=   0.000000  celldm(5)=   0.000000  celldm(6)=   0.000000

     crystal axes: (cart. coord. in units of alat)
               a(1) = (   1.000000   0.000000   0.000000 )  
               a(2) = (   0.000000   1.000000   0.000000 )  
               a(3) = (   0.000000   0.000000   1.000000 )  

     reciprocal axes: (cart. coord. in units 2 pi/alat)
               b(1) = (  1.000000  0.000000  0.000000 )  
               b(2) = (  0.000000  1.000000  0.000000 )  
               b(3) = (  0.000000  0.000000  1.000000 )  


     PseudoPot. # 1 for C  read from file:
     /util/academic/espresso/6.2.1/pseudopotentials/upf_files/C.pbe-n-rrkjus_psl.0.1.UPF
     MD5 check sum: ab446d787031eba755f1d5ee46644bb0
     Pseudo is Ultrasoft + core correction, Zval =  4.0
     Generated using "atomic" code by A. Dal Corso v.5.0.2 svn rev. 9415
     Using radial grid of 1073 points,  4 beta functions with: 
                l(1) =   0
                l(2) =   0
                l(3) =   1
                l(4) =   1
     Q(r) pseudized with 0 coefficients 


     PseudoPot. # 2 for H  read from file:
     /util/academic/espresso/6.2.1/pseudopotentials/upf_files/H.pbe-rrkjus_psl.0.1.UPF
     MD5 check sum: bd57da0722753ddfd9833a65b40bb853
     Pseudo is Ultrasoft, Zval =  1.0
     Generated using "atomic" code by A. Dal Corso v.5.0.2 svn rev. 9415
     Using radial grid of  929 points,  2 beta functions with: 
                l(1) =   0
                l(2) =   0
     Q(r) pseudized with 0 coefficients 


     PseudoPot. # 3 for Ir read from file:
     /util/academic/espresso/6.2.1/pseudopotentials/upf_files/Ir.pbe-n-rrkjus_psl.0.2.3.UPF
     MD5 check sum: 0d5bc36db6a0bde07ee800c0d8fcbb77
     Pseudo is Ultrasoft + core correction, Zval =  9.0
     Generated using "atomic" code by A. Dal Corso v.5.0.2 svn rev. 9415
     Using radial grid of 1277 points,  6 beta functions with: 
                l(1) =   0
                l(2) =   0
                l(3) =   1
                l(4) =   1
                l(5) =   2
                l(6) =   2
     Q(r) pseudized with 0 coefficients 


     PseudoPot. # 4 for N  read from file:
     /util/academic/espresso/6.2.1/pseudopotentials/upf_files/N.pbe-n-rrkjus_psl.0.1.UPF
     MD5 check sum: ed8b6a90f28a53b7d71920e7015d2dd6
     Pseudo is Ultrasoft + core correction, Zval =  5.0
     Generated using "atomic" code by A. Dal Corso v.5.0.2 svn rev. 9415
     Using radial grid of 1085 points,  4 beta functions with: 
                l(1) =   0
                l(2) =   0
                l(3) =   1
                l(4) =   1
     Q(r) pseudized with 0 coefficients 


     atomic species   valence    mass     pseudopotential
        C              4.00    12.01000     C ( 1.00)
        H              1.00     1.00700     H ( 1.00)
        Ir             9.00   192.21700     Ir( 1.00)
        N              5.00    14.00600     N ( 1.00)

     No symmetry found



   Cartesian axes

     site n.     atom                  positions (alat units)
         1           Ir  tau(   1) = (  -0.0002352   0.0051872   0.0023723  )
         2           N   tau(   2) = (   0.1605183  -0.1880181  -0.1599931  )
         3           N   tau(   3) = (  -0.2370931   0.0055029  -0.1725030  )
         4           N   tau(   4) = (   0.1057074   0.2170069  -0.1711049  )
         5           C   tau(   5) = (  -0.0822194   0.2258452   0.1488577  )
         6           C   tau(   6) = (   0.2191352  -0.0549954   0.1782581  )
         7           C   tau(   7) = (   0.2832891  -0.2836219  -0.0478375  )
         8           C   tau(   8) = (   0.3173217  -0.2124468   0.1380212  )
         9           C   tau(   9) = (  -0.1554892  -0.1845034   0.1306871  )
        10           C   tau(  10) = (   0.0731885   0.3780010  -0.0991109  )
        11           C   tau(  11) = (  -0.0087621   0.3916752   0.0844920  )
        12           C   tau(  12) = (  -0.3582791  -0.1395361  -0.1293158  )
        13           C   tau(  13) = (  -0.3174624  -0.2341013   0.0410081  )
        14           H   tau(  14) = (   0.2442839   0.0190851   0.3196050  )
        15           H   tau(  15) = (   0.4185462  -0.2841814   0.2258236  )
        16           H   tau(  16) = (   0.3677188  -0.4023754  -0.1058600  )
        17           H   tau(  17) = (   0.0820697   0.5202440  -0.1796236  )
        18           H   tau(  18) = (  -0.0082435   0.5306278   0.1597823  )
        19           H   tau(  19) = (  -0.1762249   0.2205009   0.2816748  )
        20           H   tau(  20) = (  -0.3911575  -0.3635716   0.0703803  )
        21           H   tau(  21) = (  -0.1207468  -0.2523898   0.2625403  )
        22           H   tau(  22) = (  -0.4667687  -0.1658150  -0.2352084  )
        23           H   tau(  23) = (   0.1541379  -0.2022806  -0.2994939  )
        24           H   tau(  24) = (   0.1422954   0.1949658  -0.3126175  )
        25           H   tau(  25) = (  -0.2570411   0.0711661  -0.2919308  )

     number of k points=     1  gaussian smearing, width (Ry)=  0.0100
                       cart. coord. in units 2pi/alat
        k(    1) = (   0.0000000   0.0000000   0.0000000), wk =   2.0000000

     Dense  grid:   104401 G-vectors     FFT dimensions: (  75,  75,  75)

     Smooth grid:    26318 G-vectors     FFT dimensions: (  48,  48,  48)

     Estimated max dynamical RAM per process >      46.16 MB

     Estimated total dynamical RAM >     553.92 MB

     Check: negative/imaginary core charge=   -0.000002    0.000000

     Initial potential from superposition of free atoms

     starting charge   71.99934, renormalised to   72.00000
     Starting wfc are   69 randomized atomic wfcs +   31 random wfc

     total cpu time spent up to now is        2.5 secs

     Self-consistent Calculation

     iteration #  1     ecut=    30.00 Ry     beta= 0.30
     Davidson diagonalization with overlap
     ethr =  1.00E-02,  avg # of iterations =  5.0

     total cpu time spent up to now is        2.9 secs

     total energy              =    -243.65038564 Ry
     Harris-Foulkes estimate   =    -244.95764863 Ry
     estimated scf accuracy    <       3.41579507 Ry

     iteration #  2     ecut=    30.00 Ry     beta= 0.30
     Davidson diagonalization with overlap
     ethr =  4.74E-03,  avg # of iterations =  1.0

     total cpu time spent up to now is        3.1 secs

     total energy              =    -243.76612040 Ry
     Harris-Foulkes estimate   =    -244.07515491 Ry
     estimated scf accuracy    <       0.88152876 Ry

     iteration #  3     ecut=    30.00 Ry     beta= 0.30
     Davidson diagonalization with overlap
     ethr =  1.22E-03,  avg # of iterations =  4.0

     total cpu time spent up to now is        3.3 secs

     total energy              =    -243.80342982 Ry
     Harris-Foulkes estimate   =    -243.91001461 Ry
     estimated scf accuracy    <       0.34183300 Ry

     iteration #  4     ecut=    30.00 Ry     beta= 0.30
     Davidson diagonalization with overlap
     ethr =  4.75E-04,  avg # of iterations =  4.0

     negative rho (up, down):  1.368E-07 0.000E+00

     total cpu time spent up to now is        3.6 secs

     total energy              =    -243.82801855 Ry
     Harris-Foulkes estimate   =    -243.84623489 Ry
     estimated scf accuracy    <       0.05588721 Ry

     iteration #  5     ecut=    30.00 Ry     beta= 0.30
     Davidson diagonalization with overlap
     ethr =  7.76E-05,  avg # of iterations = 10.0

     negative rho (up, down):  5.332E-07 0.000E+00

     total cpu time spent up to now is        4.0 secs

     total energy              =    -243.83541200 Ry
     Harris-Foulkes estimate   =    -243.83667160 Ry
     estimated scf accuracy    <       0.00611617 Ry

     iteration #  6     ecut=    30.00 Ry     beta= 0.30
     Davidson diagonalization with overlap
     ethr =  8.49E-06,  avg # of iterations = 20.0

     negative rho (up, down):  1.923E-07 0.000E+00

     total cpu time spent up to now is        4.6 secs

     total energy              =    -243.83614477 Ry
     Harris-Foulkes estimate   =    -243.83625515 Ry
     estimated scf accuracy    <       0.00090793 Ry

     iteration #  7     ecut=    30.00 Ry     beta= 0.30
     Davidson diagonalization with overlap
     ethr =  1.26E-06,  avg # of iterations =  3.0

     negative rho (up, down):  2.872E-08 0.000E+00

     total cpu time spent up to now is        4.8 secs

     total energy              =    -243.83622370 Ry
     Harris-Foulkes estimate   =    -243.83621264 Ry
     estimated scf accuracy    <       0.00015889 Ry

     iteration #  8     ecut=    30.00 Ry     beta= 0.30
     Davidson diagonalization with overlap
     ethr =  2.21E-07,  avg # of iterations =  2.0

     total cpu time spent up to now is        5.0 secs

     End of self-consistent calculation

          k = 0.0000 0.0000 0.0000 (  3310 PWs)   bands (ev):

   -18.4569 -17.9634 -17.6220 -14.4733 -14.0756 -13.9904 -11.5767 -10.8652
   -10.6258  -9.2459  -8.7637  -8.2268  -8.1757  -8.0447  -7.5474  -6.4026
    -6.1317  -5.7260  -5.5536  -5.2337  -5.0409  -4.7101  -4.3818  -4.1886
    -4.0176  -3.6248  -3.4810  -2.4098  -2.3259  -2.0391  -1.7151  -1.5615
    -1.1277  -0.4901  -0.2663   0.2146   1.9926   2.4906   3.1128   3.2000
     4.7210   5.1386   5.3839   5.4739   5.6445   5.7851   6.0431   6.2417
     6.6828   6.8144   6.9613   7.5058   7.7175   7.8736   8.1978   8.3714
     8.5766   8.6823   9.0899   9.2193   9.4768   9.8476  10.0051  10.6282
    10.7885  11.0109  11.1392  11.1920  11.5534  11.7428  11.9119  12.2834
    12.3889  12.5300  12.6991  12.8723  12.9431  13.1470  13.4542  13.8651
    14.0094  14.0867  14.2658  14.4320  14.6128  14.6790  14.7349  14.9037
    15.1566  15.3539  15.5886  15.8071  15.9389  16.0320  16.2077  16.4386
    16.6594  16.8674  16.9645  17.0811

     the Fermi energy is     1.0035 ev

!    total energy              =    -243.83628445 Ry
     Harris-Foulkes estimate   =    -243.83624519 Ry
     estimated scf accuracy    <       0.00002051 Ry

     The total energy is the sum of the following terms:

     one-electron contribution =    -340.14836555 Ry
     hartree contribution      =     194.23154628 Ry
     xc contribution           =     -93.33688473 Ry
     ewald contribution        =      -4.58258045 Ry
     smearing contrib. (-TS)   =      -0.00000000 Ry

     convergence has been achieved in   8 iterations

     Writing output data file x0.save
 
     init_run     :      0.35s CPU      0.43s WALL (       1 calls)
     electrons    :      2.49s CPU      2.59s WALL (       1 calls)

     Called by init_run:
     wfcinit      :      0.03s CPU      0.04s WALL (       1 calls)
     potinit      :      0.08s CPU      0.08s WALL (       1 calls)

     Called by electrons:
     c_bands      :      1.44s CPU      1.47s WALL (       8 calls)
     sum_band     :      0.49s CPU      0.51s WALL (       8 calls)
     v_of_rho     :      0.25s CPU      0.26s WALL (       9 calls)
     newd         :      0.31s CPU      0.33s WALL (       9 calls)
     mix_rho      :      0.03s CPU      0.03s WALL (       8 calls)

     Called by c_bands:
     init_us_2    :      0.00s CPU      0.01s WALL (      17 calls)
     regterg      :      1.42s CPU      1.45s WALL (       8 calls)

     Called by sum_band:
     sum_band:bec :      0.00s CPU      0.00s WALL (       8 calls)
     addusdens    :      0.34s CPU      0.35s WALL (       8 calls)

     Called by *egterg:
     h_psi        :      0.50s CPU      0.51s WALL (      58 calls)
     s_psi        :      0.01s CPU      0.01s WALL (      58 calls)
     g_psi        :      0.00s CPU      0.00s WALL (      49 calls)
     rdiaghg      :      0.77s CPU      0.78s WALL (      57 calls)

     Called by h_psi:
     h_psi:pot    :      0.49s CPU      0.51s WALL (      58 calls)
     h_psi:calbec :      0.02s CPU      0.02s WALL (      58 calls)
     vloc_psi     :      0.46s CPU      0.47s WALL (      58 calls)
     add_vuspsi   :      0.01s CPU      0.01s WALL (      58 calls)

     General routines
     calbec       :      0.03s CPU      0.03s WALL (      66 calls)
     fft          :      0.27s CPU      0.27s WALL (     140 calls)
     ffts         :      0.01s CPU      0.01s WALL (      17 calls)
     fftw         :      0.49s CPU      0.50s WALL (    2488 calls)
     interpolate  :      0.04s CPU      0.04s WALL (      17 calls)
 
     Parallel routines
     fft_scatt_xy :      0.04s CPU      0.04s WALL (    2645 calls)
     fft_scatt_yz :      0.17s CPU      0.18s WALL (    2645 calls)
 
     PWSCF        :     4.54s CPU         5.53s WALL

 
   This run was terminated on:  18:56:29  22Jun2021            

=------------------------------------------------------------------------------=
   JOB DONE.
=------------------------------------------------------------------------------=
