
     Program PWSCF v.6.2 (svn rev. 14038) starts on 22Jun2021 at 18:53:46 

     This program is part of the open-source Quantum ESPRESSO suite
     for quantum simulation of materials; please cite
         "P. Giannozzi et al., J. Phys.:Condens. Matter 21 395502 (2009);
         "P. Giannozzi et al., J. Phys.:Condens. Matter 29 465901 (2017);
          URL http://www.quantum-espresso.org", 
     in publications or presentations arising from this work. More details at
     http://www.quantum-espresso.org/quote

     Parallel version (MPI), running on    12 processors

     MPI processes distributed on     1 nodes
     R & G space division:  proc/nbgrp/npool/nimage =      12
     Waiting for input...
     Reading input from standard input

     Current dimensions of program PWSCF are:
     Max number of different atomic species (ntypx) = 10
     Max number of k-points (npk) =  40000
     Max angular momentum in pseudopotentials (lmaxx) =  3
               file Ir.pbe-n-rrkjus_psl.0.2.3.UPF: wavefunction(s)  5D renormalized

     gamma-point specific algorithms are used

     Subspace diagonalization in iterative solution of the eigenvalue problem:
     a serial algorithm will be used

 
     Parallelization info
     --------------------
     sticks:   dense  smooth     PW     G-vecs:    dense   smooth      PW
     Min         353     140     34                17398     4383     546
     Max         356     144     36                17404     4390     556
     Sum        4257    1701    421               208801    52635    6619
 


     bravais-lattice index     =            0
     lattice parameter (alat)  =      13.3514  a.u.
     unit-cell volume          =    2380.0325 (a.u.)^3
     number of atoms/cell      =           25
     number of atomic types    =            4
     number of electrons       =        72.00
     number of Kohn-Sham states=          100
     kinetic-energy cutoff     =      30.0000  Ry
     charge density cutoff     =     300.0000  Ry
     convergence threshold     =      1.0E-04
     mixing beta               =       0.3000
     number of iterations used =            8  plain     mixing
     Exchange-correlation      = PBE ( 1  4  3  4 0 0)

     celldm(1)=  13.351425  celldm(2)=   0.000000  celldm(3)=   0.000000
     celldm(4)=   0.000000  celldm(5)=   0.000000  celldm(6)=   0.000000

     crystal axes: (cart. coord. in units of alat)
               a(1) = (   1.000000   0.000000   0.000000 )  
               a(2) = (   0.000000   1.000000   0.000000 )  
               a(3) = (   0.000000   0.000000   1.000000 )  

     reciprocal axes: (cart. coord. in units 2 pi/alat)
               b(1) = (  1.000000  0.000000  0.000000 )  
               b(2) = (  0.000000  1.000000  0.000000 )  
               b(3) = (  0.000000  0.000000  1.000000 )  


     PseudoPot. # 1 for C  read from file:
     /util/academic/espresso/6.2.1/pseudopotentials/upf_files/C.pbe-n-rrkjus_psl.0.1.UPF
     MD5 check sum: ab446d787031eba755f1d5ee46644bb0
     Pseudo is Ultrasoft + core correction, Zval =  4.0
     Generated using "atomic" code by A. Dal Corso v.5.0.2 svn rev. 9415
     Using radial grid of 1073 points,  4 beta functions with: 
                l(1) =   0
                l(2) =   0
                l(3) =   1
                l(4) =   1
     Q(r) pseudized with 0 coefficients 


     PseudoPot. # 2 for H  read from file:
     /util/academic/espresso/6.2.1/pseudopotentials/upf_files/H.pbe-rrkjus_psl.0.1.UPF
     MD5 check sum: bd57da0722753ddfd9833a65b40bb853
     Pseudo is Ultrasoft, Zval =  1.0
     Generated using "atomic" code by A. Dal Corso v.5.0.2 svn rev. 9415
     Using radial grid of  929 points,  2 beta functions with: 
                l(1) =   0
                l(2) =   0
     Q(r) pseudized with 0 coefficients 


     PseudoPot. # 3 for Ir read from file:
     /util/academic/espresso/6.2.1/pseudopotentials/upf_files/Ir.pbe-n-rrkjus_psl.0.2.3.UPF
     MD5 check sum: 0d5bc36db6a0bde07ee800c0d8fcbb77
     Pseudo is Ultrasoft + core correction, Zval =  9.0
     Generated using "atomic" code by A. Dal Corso v.5.0.2 svn rev. 9415
     Using radial grid of 1277 points,  6 beta functions with: 
                l(1) =   0
                l(2) =   0
                l(3) =   1
                l(4) =   1
                l(5) =   2
                l(6) =   2
     Q(r) pseudized with 0 coefficients 


     PseudoPot. # 4 for N  read from file:
     /util/academic/espresso/6.2.1/pseudopotentials/upf_files/N.pbe-n-rrkjus_psl.0.1.UPF
     MD5 check sum: ed8b6a90f28a53b7d71920e7015d2dd6
     Pseudo is Ultrasoft + core correction, Zval =  5.0
     Generated using "atomic" code by A. Dal Corso v.5.0.2 svn rev. 9415
     Using radial grid of 1085 points,  4 beta functions with: 
                l(1) =   0
                l(2) =   0
                l(3) =   1
                l(4) =   1
     Q(r) pseudized with 0 coefficients 


     atomic species   valence    mass     pseudopotential
        C              4.00    12.01000     C ( 1.00)
        H              1.00     1.00700     H ( 1.00)
        Ir             9.00   192.21700     Ir( 1.00)
        N              5.00    14.00600     N ( 1.00)

     No symmetry found



   Cartesian axes

     site n.     atom                  positions (alat units)
         1           Ir  tau(   1) = (  -0.0004104   0.0028499  -0.0004753  )
         2           N   tau(   2) = (   0.1311452  -0.2205472  -0.1647532  )
         3           N   tau(   3) = (  -0.2514570  -0.0046932  -0.1550360  )
         4           N   tau(   4) = (   0.1407966   0.2188279  -0.1626347  )
         5           C   tau(   5) = (  -0.0687626   0.2243165   0.1480161  )
         6           C   tau(   6) = (   0.2165433  -0.0437263   0.1566761  )
         7           C   tau(   7) = (   0.2821944  -0.2806419  -0.0763985  )
         8           C   tau(   8) = (   0.3271867  -0.1920321   0.0948163  )
         9           C   tau(   9) = (  -0.1535636  -0.1660911   0.1553887  )
        10           C   tau(  10) = (   0.0872030   0.3808482  -0.0882211  )
        11           C   tau(  11) = (  -0.0112261   0.3954321   0.0909387  )
        12           C   tau(  12) = (  -0.3749019  -0.1218073  -0.0974491  )
        13           C   tau(  13) = (  -0.3242723  -0.2257428   0.0798781  )
        14           H   tau(  14) = (   0.2526823   0.0257740   0.2936430  )
        15           H   tau(  15) = (   0.4368401  -0.2420321   0.1891005  )
        16           H   tau(  16) = (   0.3667804  -0.4065101  -0.1281790  )
        17           H   tau(  17) = (   0.1094893   0.4970347  -0.1780448  )
        18           H   tau(  18) = (  -0.0194943   0.5293929   0.1674524  )
        19           H   tau(  19) = (  -0.1552157   0.2144617   0.2791550  )
        20           H   tau(  20) = (  -0.3270789  -0.3662824   0.0480567  )
        21           H   tau(  21) = (  -0.1115635  -0.2305651   0.2961040  )
        22           H   tau(  22) = (  -0.4956349  -0.1395779  -0.1896600  )
        23           H   tau(  23) = (   0.0988117  -0.2987358  -0.2778348  )
        24           H   tau(  24) = (   0.1712939   0.2241534  -0.3085209  )
        25           H   tau(  25) = (  -0.2997530   0.0892642  -0.2688576  )

     number of k points=     1  gaussian smearing, width (Ry)=  0.0100
                       cart. coord. in units 2pi/alat
        k(    1) = (   0.0000000   0.0000000   0.0000000), wk =   2.0000000

     Dense  grid:   104401 G-vectors     FFT dimensions: (  75,  75,  75)

     Smooth grid:    26318 G-vectors     FFT dimensions: (  48,  48,  48)

     Estimated max dynamical RAM per process >      46.16 MB

     Estimated total dynamical RAM >     553.92 MB

     Check: negative/imaginary core charge=   -0.000002    0.000000

     Initial potential from superposition of free atoms

     starting charge   71.99934, renormalised to   72.00000
     Starting wfc are   69 randomized atomic wfcs +   31 random wfc

     total cpu time spent up to now is        2.6 secs

     Self-consistent Calculation

     iteration #  1     ecut=    30.00 Ry     beta= 0.30
     Davidson diagonalization with overlap
     ethr =  1.00E-02,  avg # of iterations =  5.0

     total cpu time spent up to now is        3.0 secs

     total energy              =    -243.53615387 Ry
     Harris-Foulkes estimate   =    -244.83447108 Ry
     estimated scf accuracy    <       3.40714999 Ry

     iteration #  2     ecut=    30.00 Ry     beta= 0.30
     Davidson diagonalization with overlap
     ethr =  4.73E-03,  avg # of iterations =  1.0

     total cpu time spent up to now is        3.2 secs

     total energy              =    -243.63853590 Ry
     Harris-Foulkes estimate   =    -243.94271849 Ry
     estimated scf accuracy    <       0.86022879 Ry

     iteration #  3     ecut=    30.00 Ry     beta= 0.30
     Davidson diagonalization with overlap
     ethr =  1.19E-03,  avg # of iterations =  4.0

     total cpu time spent up to now is        3.4 secs

     total energy              =    -243.67417633 Ry
     Harris-Foulkes estimate   =    -243.77688170 Ry
     estimated scf accuracy    <       0.32873621 Ry

     iteration #  4     ecut=    30.00 Ry     beta= 0.30
     Davidson diagonalization with overlap
     ethr =  4.57E-04,  avg # of iterations =  3.0

     negative rho (up, down):  2.393E-08 0.000E+00

     total cpu time spent up to now is        3.7 secs

     total energy              =    -243.69550766 Ry
     Harris-Foulkes estimate   =    -243.71347755 Ry
     estimated scf accuracy    <       0.05412510 Ry

     iteration #  5     ecut=    30.00 Ry     beta= 0.30
     Davidson diagonalization with overlap
     ethr =  7.52E-05,  avg # of iterations =  5.0

     total cpu time spent up to now is        4.0 secs

     total energy              =    -243.70403565 Ry
     Harris-Foulkes estimate   =    -243.70492314 Ry
     estimated scf accuracy    <       0.00504651 Ry

     iteration #  6     ecut=    30.00 Ry     beta= 0.30
     Davidson diagonalization with overlap
     ethr =  7.01E-06,  avg # of iterations =  3.0

     total cpu time spent up to now is        4.2 secs

     total energy              =    -243.70445271 Ry
     Harris-Foulkes estimate   =    -243.70454283 Ry
     estimated scf accuracy    <       0.00086349 Ry

     iteration #  7     ecut=    30.00 Ry     beta= 0.30
     Davidson diagonalization with overlap
     c_bands:  1 eigenvalues not converged
     ethr =  1.20E-06,  avg # of iterations = 20.0

     total cpu time spent up to now is        4.7 secs

     End of self-consistent calculation

          k = 0.0000 0.0000 0.0000 (  3310 PWs)   bands (ev):

   -18.6149 -18.3046 -18.0140 -14.3547 -14.2524 -13.6871 -11.4928 -10.8714
   -10.3229  -9.0288  -8.5117  -8.4082  -8.3120  -7.8888  -7.7068  -6.4344
    -6.1830  -5.8617  -5.6131  -5.1182  -5.0274  -4.6450  -4.2983  -4.2124
    -4.1152  -3.5964  -3.4802  -2.5068  -2.4124  -2.2984  -1.6109  -1.4000
    -1.2328  -0.3993  -0.2662   0.7184   1.9238   2.6300   3.0152   3.1986
     4.3412   5.1412   5.2034   5.5003   5.6560   5.7350   5.9011   5.9843
     6.6557   6.9350   7.0579   7.4530   7.7539   8.0242   8.1914   8.4271
     8.6977   8.9807   9.1555   9.3354   9.4882   9.5860   9.8853  10.3544
    10.6015  10.8733  11.0736  11.2398  11.5741  11.9127  12.0026  12.2782
    12.3271  12.5735  12.7517  12.9682  13.1980  13.3636  13.5239  13.7922
    13.8383  14.0776  14.3709  14.7029  14.7339  14.8870  14.9642  15.1658
    15.2131  15.3498  15.4958  15.6663  15.8685  15.9186  16.4279  16.5588
    16.7875  16.8518  17.0136  17.1992

     the Fermi energy is     1.3205 ev

!    total energy              =    -243.70459918 Ry
     Harris-Foulkes estimate   =    -243.70453320 Ry
     estimated scf accuracy    <       0.00009838 Ry

     The total energy is the sum of the following terms:

     one-electron contribution =    -347.53423808 Ry
     hartree contribution      =     197.98718365 Ry
     xc contribution           =     -93.45968243 Ry
     ewald contribution        =      -0.69786232 Ry
     smearing contrib. (-TS)   =      -0.00000000 Ry

     convergence has been achieved in   7 iterations

     Writing output data file x0.save
 
     init_run     :      0.37s CPU      0.42s WALL (       1 calls)
     electrons    :      2.11s CPU      2.26s WALL (       1 calls)

     Called by init_run:
     wfcinit      :      0.03s CPU      0.04s WALL (       1 calls)
     potinit      :      0.08s CPU      0.08s WALL (       1 calls)

     Called by electrons:
     c_bands      :      1.21s CPU      1.23s WALL (       7 calls)
     sum_band     :      0.41s CPU      0.43s WALL (       7 calls)
     v_of_rho     :      0.22s CPU      0.23s WALL (       8 calls)
     newd         :      0.27s CPU      0.28s WALL (       8 calls)
     mix_rho      :      0.03s CPU      0.03s WALL (       7 calls)

     Called by c_bands:
     init_us_2    :      0.00s CPU      0.01s WALL (      15 calls)
     regterg      :      1.20s CPU      1.22s WALL (       7 calls)

     Called by sum_band:
     sum_band:bec :      0.00s CPU      0.00s WALL (       7 calls)
     addusdens    :      0.28s CPU      0.29s WALL (       7 calls)

     Called by *egterg:
     h_psi        :      0.46s CPU      0.48s WALL (      49 calls)
     s_psi        :      0.01s CPU      0.01s WALL (      49 calls)
     g_psi        :      0.00s CPU      0.00s WALL (      41 calls)
     rdiaghg      :      0.61s CPU      0.61s WALL (      48 calls)

     Called by h_psi:
     h_psi:pot    :      0.46s CPU      0.47s WALL (      49 calls)
     h_psi:calbec :      0.02s CPU      0.02s WALL (      49 calls)
     vloc_psi     :      0.43s CPU      0.44s WALL (      49 calls)
     add_vuspsi   :      0.01s CPU      0.01s WALL (      49 calls)

     General routines
     calbec       :      0.03s CPU      0.03s WALL (      56 calls)
     fft          :      0.23s CPU      0.24s WALL (     124 calls)
     ffts         :      0.01s CPU      0.01s WALL (      15 calls)
     fftw         :      0.45s CPU      0.47s WALL (    2226 calls)
     interpolate  :      0.03s CPU      0.03s WALL (      15 calls)
 
     Parallel routines
     fft_scatt_xy :      0.04s CPU      0.04s WALL (    2365 calls)
     fft_scatt_yz :      0.17s CPU      0.18s WALL (    2365 calls)
 
     PWSCF        :     4.04s CPU         5.41s WALL

 
   This run was terminated on:  18:53:51  22Jun2021            

=------------------------------------------------------------------------------=
   JOB DONE.
=------------------------------------------------------------------------------=
