
     Program PWSCF v.6.2 (svn rev. 14038) starts on 22Jun2021 at 18:54:32 

     This program is part of the open-source Quantum ESPRESSO suite
     for quantum simulation of materials; please cite
         "P. Giannozzi et al., J. Phys.:Condens. Matter 21 395502 (2009);
         "P. Giannozzi et al., J. Phys.:Condens. Matter 29 465901 (2017);
          URL http://www.quantum-espresso.org", 
     in publications or presentations arising from this work. More details at
     http://www.quantum-espresso.org/quote

     Parallel version (MPI), running on    12 processors

     MPI processes distributed on     1 nodes
     R & G space division:  proc/nbgrp/npool/nimage =      12
     Waiting for input...
     Reading input from standard input

     Current dimensions of program PWSCF are:
     Max number of different atomic species (ntypx) = 10
     Max number of k-points (npk) =  40000
     Max angular momentum in pseudopotentials (lmaxx) =  3
               file Ir.pbe-n-rrkjus_psl.0.2.3.UPF: wavefunction(s)  5D renormalized

     gamma-point specific algorithms are used

     Subspace diagonalization in iterative solution of the eigenvalue problem:
     a serial algorithm will be used

 
     Parallelization info
     --------------------
     sticks:   dense  smooth     PW     G-vecs:    dense   smooth      PW
     Min         353     140     34                17398     4383     546
     Max         356     144     36                17404     4390     556
     Sum        4257    1701    421               208801    52635    6619
 


     bravais-lattice index     =            0
     lattice parameter (alat)  =      13.3514  a.u.
     unit-cell volume          =    2380.0325 (a.u.)^3
     number of atoms/cell      =           25
     number of atomic types    =            4
     number of electrons       =        72.00
     number of Kohn-Sham states=          100
     kinetic-energy cutoff     =      30.0000  Ry
     charge density cutoff     =     300.0000  Ry
     convergence threshold     =      1.0E-04
     mixing beta               =       0.3000
     number of iterations used =            8  plain     mixing
     Exchange-correlation      = PBE ( 1  4  3  4 0 0)

     celldm(1)=  13.351425  celldm(2)=   0.000000  celldm(3)=   0.000000
     celldm(4)=   0.000000  celldm(5)=   0.000000  celldm(6)=   0.000000

     crystal axes: (cart. coord. in units of alat)
               a(1) = (   1.000000   0.000000   0.000000 )  
               a(2) = (   0.000000   1.000000   0.000000 )  
               a(3) = (   0.000000   0.000000   1.000000 )  

     reciprocal axes: (cart. coord. in units 2 pi/alat)
               b(1) = (  1.000000  0.000000  0.000000 )  
               b(2) = (  0.000000  1.000000  0.000000 )  
               b(3) = (  0.000000  0.000000  1.000000 )  


     PseudoPot. # 1 for C  read from file:
     /util/academic/espresso/6.2.1/pseudopotentials/upf_files/C.pbe-n-rrkjus_psl.0.1.UPF
     MD5 check sum: ab446d787031eba755f1d5ee46644bb0
     Pseudo is Ultrasoft + core correction, Zval =  4.0
     Generated using "atomic" code by A. Dal Corso v.5.0.2 svn rev. 9415
     Using radial grid of 1073 points,  4 beta functions with: 
                l(1) =   0
                l(2) =   0
                l(3) =   1
                l(4) =   1
     Q(r) pseudized with 0 coefficients 


     PseudoPot. # 2 for H  read from file:
     /util/academic/espresso/6.2.1/pseudopotentials/upf_files/H.pbe-rrkjus_psl.0.1.UPF
     MD5 check sum: bd57da0722753ddfd9833a65b40bb853
     Pseudo is Ultrasoft, Zval =  1.0
     Generated using "atomic" code by A. Dal Corso v.5.0.2 svn rev. 9415
     Using radial grid of  929 points,  2 beta functions with: 
                l(1) =   0
                l(2) =   0
     Q(r) pseudized with 0 coefficients 


     PseudoPot. # 3 for Ir read from file:
     /util/academic/espresso/6.2.1/pseudopotentials/upf_files/Ir.pbe-n-rrkjus_psl.0.2.3.UPF
     MD5 check sum: 0d5bc36db6a0bde07ee800c0d8fcbb77
     Pseudo is Ultrasoft + core correction, Zval =  9.0
     Generated using "atomic" code by A. Dal Corso v.5.0.2 svn rev. 9415
     Using radial grid of 1277 points,  6 beta functions with: 
                l(1) =   0
                l(2) =   0
                l(3) =   1
                l(4) =   1
                l(5) =   2
                l(6) =   2
     Q(r) pseudized with 0 coefficients 


     PseudoPot. # 4 for N  read from file:
     /util/academic/espresso/6.2.1/pseudopotentials/upf_files/N.pbe-n-rrkjus_psl.0.1.UPF
     MD5 check sum: ed8b6a90f28a53b7d71920e7015d2dd6
     Pseudo is Ultrasoft + core correction, Zval =  5.0
     Generated using "atomic" code by A. Dal Corso v.5.0.2 svn rev. 9415
     Using radial grid of 1085 points,  4 beta functions with: 
                l(1) =   0
                l(2) =   0
                l(3) =   1
                l(4) =   1
     Q(r) pseudized with 0 coefficients 


     atomic species   valence    mass     pseudopotential
        C              4.00    12.01000     C ( 1.00)
        H              1.00     1.00700     H ( 1.00)
        Ir             9.00   192.21700     Ir( 1.00)
        N              5.00    14.00600     N ( 1.00)

     No symmetry found



   Cartesian axes

     site n.     atom                  positions (alat units)
         1           Ir  tau(   1) = (  -0.0015459   0.0044410   0.0009015  )
         2           N   tau(   2) = (   0.1308129  -0.2099674  -0.1690481  )
         3           N   tau(   3) = (  -0.2451225  -0.0043256  -0.1663452  )
         4           N   tau(   4) = (   0.1427398   0.2129047  -0.1580695  )
         5           C   tau(   5) = (  -0.0742985   0.2239840   0.1519652  )
         6           C   tau(   6) = (   0.2167126  -0.0493319   0.1619148  )
         7           C   tau(   7) = (   0.2727918  -0.2771554  -0.0748255  )
         8           C   tau(   8) = (   0.3206388  -0.1955015   0.1060145  )
         9           C   tau(   9) = (  -0.1480405  -0.1653227   0.1507637  )
        10           C   tau(  10) = (   0.0813964   0.3762214  -0.0920960  )
        11           C   tau(  11) = (  -0.0083336   0.3995116   0.0889638  )
        12           C   tau(  12) = (  -0.3606615  -0.1343345  -0.1014574  )
        13           C   tau(  13) = (  -0.3058614  -0.2337383   0.0604000  )
        14           H   tau(  14) = (   0.2358498   0.0267252   0.2946063  )
        15           H   tau(  15) = (   0.4265627  -0.2673649   0.1868173  )
        16           H   tau(  16) = (   0.3325353  -0.4081879  -0.1359636  )
        17           H   tau(  17) = (   0.1013930   0.4945097  -0.1754443  )
        18           H   tau(  18) = (  -0.0220409   0.5269164   0.1692880  )
        19           H   tau(  19) = (  -0.1391015   0.2146072   0.2952645  )
        20           H   tau(  20) = (  -0.3475685  -0.3811919   0.0597894  )
        21           H   tau(  21) = (  -0.0914057  -0.2447110   0.2762054  )
        22           H   tau(  22) = (  -0.4987337  -0.1571894  -0.1637904  )
        23           H   tau(  23) = (   0.0945960  -0.2787679  -0.2984868  )
        24           H   tau(  24) = (   0.1934197   0.2172987  -0.2951279  )
        25           H   tau(  25) = (  -0.3184166   0.0928803  -0.2568707  )

     number of k points=     1  gaussian smearing, width (Ry)=  0.0100
                       cart. coord. in units 2pi/alat
        k(    1) = (   0.0000000   0.0000000   0.0000000), wk =   2.0000000

     Dense  grid:   104401 G-vectors     FFT dimensions: (  75,  75,  75)

     Smooth grid:    26318 G-vectors     FFT dimensions: (  48,  48,  48)

     Estimated max dynamical RAM per process >      46.16 MB

     Estimated total dynamical RAM >     553.92 MB

     Check: negative/imaginary core charge=   -0.000002    0.000000

     Initial potential from superposition of free atoms

     starting charge   71.99934, renormalised to   72.00000
     Starting wfc are   69 randomized atomic wfcs +   31 random wfc

     total cpu time spent up to now is        2.6 secs

     Self-consistent Calculation

     iteration #  1     ecut=    30.00 Ry     beta= 0.30
     Davidson diagonalization with overlap
     ethr =  1.00E-02,  avg # of iterations =  5.0

     total cpu time spent up to now is        3.0 secs

     total energy              =    -243.63897810 Ry
     Harris-Foulkes estimate   =    -244.90135562 Ry
     estimated scf accuracy    <       3.33292554 Ry

     iteration #  2     ecut=    30.00 Ry     beta= 0.30
     Davidson diagonalization with overlap
     ethr =  4.63E-03,  avg # of iterations =  1.0

     total cpu time spent up to now is        3.2 secs

     total energy              =    -243.71592027 Ry
     Harris-Foulkes estimate   =    -244.00982046 Ry
     estimated scf accuracy    <       0.81984288 Ry

     iteration #  3     ecut=    30.00 Ry     beta= 0.30
     Davidson diagonalization with overlap
     ethr =  1.14E-03,  avg # of iterations =  4.0

     total cpu time spent up to now is        3.5 secs

     total energy              =    -243.74833239 Ry
     Harris-Foulkes estimate   =    -243.84707024 Ry
     estimated scf accuracy    <       0.31782416 Ry

     iteration #  4     ecut=    30.00 Ry     beta= 0.30
     Davidson diagonalization with overlap
     ethr =  4.41E-04,  avg # of iterations =  2.0

     negative rho (up, down):  1.355E-07 0.000E+00

     total cpu time spent up to now is        3.7 secs

     total energy              =    -243.76902975 Ry
     Harris-Foulkes estimate   =    -243.78713026 Ry
     estimated scf accuracy    <       0.05364809 Ry

     iteration #  5     ecut=    30.00 Ry     beta= 0.30
     Davidson diagonalization with overlap
     ethr =  7.45E-05,  avg # of iterations =  6.0

     negative rho (up, down):  5.901E-08 0.000E+00

     total cpu time spent up to now is        4.1 secs

     total energy              =    -243.77825686 Ry
     Harris-Foulkes estimate   =    -243.77896119 Ry
     estimated scf accuracy    <       0.00447912 Ry

     iteration #  6     ecut=    30.00 Ry     beta= 0.30
     Davidson diagonalization with overlap
     ethr =  6.22E-06,  avg # of iterations =  2.0

     negative rho (up, down):  1.797E-08 0.000E+00

     total cpu time spent up to now is        4.3 secs

     total energy              =    -243.77846949 Ry
     Harris-Foulkes estimate   =    -243.77856174 Ry
     estimated scf accuracy    <       0.00086828 Ry

     iteration #  7     ecut=    30.00 Ry     beta= 0.30
     Davidson diagonalization with overlap
     ethr =  1.21E-06,  avg # of iterations =  1.0

     total cpu time spent up to now is        4.5 secs

     End of self-consistent calculation

          k = 0.0000 0.0000 0.0000 (  3310 PWs)   bands (ev):

   -18.6157 -18.0153 -17.9235 -14.4015 -14.0684 -13.8695 -11.6012 -10.8796
   -10.4746  -9.0304  -8.6004  -8.4858  -8.2089  -7.9400  -7.7340  -6.4692
    -6.2273  -5.9570  -5.6382  -5.3171  -5.0785  -4.8367  -4.4241  -4.1018
    -3.9510  -3.6188  -3.4968  -2.4710  -2.3114  -2.0839  -1.6677  -1.6343
    -1.3241  -0.4730  -0.2518   0.4501   1.9675   2.5309   2.9518   3.1573
     4.8189   4.9917   5.2210   5.4869   5.7019   5.7868   6.0439   6.0726
     6.6684   7.0677   7.1404   7.3805   7.7927   7.9284   8.2163   8.4640
     8.7155   8.9903   9.2105   9.3736   9.6408   9.7017   9.7658  10.7322
    10.8147  10.8512  11.1275  11.2112  11.4938  11.7699  12.0381  12.1777
    12.2299  12.6829  12.7431  12.8511  13.0798  13.4832  13.6283  13.7635
    14.0454  14.1055  14.3422  14.4883  14.7658  14.9775  15.0233  15.1356
    15.2646  15.2899  15.4599  15.7406  15.7930  15.9219  16.2069  16.5416
    16.6843  16.9482  17.0953  17.1073

     the Fermi energy is     1.2292 ev

!    total energy              =    -243.77862114 Ry
     Harris-Foulkes estimate   =    -243.77855560 Ry
     estimated scf accuracy    <       0.00007474 Ry

     The total energy is the sum of the following terms:

     one-electron contribution =    -349.51375548 Ry
     hartree contribution      =     198.92142480 Ry
     xc contribution           =     -93.49259974 Ry
     ewald contribution        =       0.30630929 Ry
     smearing contrib. (-TS)   =      -0.00000000 Ry

     convergence has been achieved in   7 iterations

     Writing output data file x0.save
 
     init_run     :      0.40s CPU      0.43s WALL (       1 calls)
     electrons    :      1.80s CPU      1.90s WALL (       1 calls)

     Called by init_run:
     wfcinit      :      0.04s CPU      0.04s WALL (       1 calls)
     potinit      :      0.08s CPU      0.08s WALL (       1 calls)

     Called by electrons:
     c_bands      :      0.88s CPU      0.90s WALL (       7 calls)
     sum_band     :      0.43s CPU      0.44s WALL (       7 calls)
     v_of_rho     :      0.22s CPU      0.23s WALL (       8 calls)
     newd         :      0.28s CPU      0.30s WALL (       8 calls)
     mix_rho      :      0.03s CPU      0.03s WALL (       7 calls)

     Called by c_bands:
     init_us_2    :      0.00s CPU      0.00s WALL (      15 calls)
     regterg      :      0.86s CPU      0.89s WALL (       7 calls)

     Called by sum_band:
     sum_band:bec :      0.00s CPU      0.00s WALL (       7 calls)
     addusdens    :      0.29s CPU      0.30s WALL (       7 calls)

     Called by *egterg:
     h_psi        :      0.43s CPU      0.44s WALL (      29 calls)
     s_psi        :      0.01s CPU      0.01s WALL (      29 calls)
     g_psi        :      0.00s CPU      0.00s WALL (      21 calls)
     rdiaghg      :      0.35s CPU      0.35s WALL (      28 calls)

     Called by h_psi:
     h_psi:pot    :      0.42s CPU      0.44s WALL (      29 calls)
     h_psi:calbec :      0.02s CPU      0.02s WALL (      29 calls)
     vloc_psi     :      0.39s CPU      0.41s WALL (      29 calls)
     add_vuspsi   :      0.01s CPU      0.01s WALL (      29 calls)

     General routines
     calbec       :      0.02s CPU      0.02s WALL (      36 calls)
     fft          :      0.23s CPU      0.24s WALL (     124 calls)
     ffts         :      0.01s CPU      0.01s WALL (      15 calls)
     fftw         :      0.42s CPU      0.44s WALL (    2178 calls)
     interpolate  :      0.04s CPU      0.04s WALL (      15 calls)
 
     Parallel routines
     fft_scatt_xy :      0.04s CPU      0.04s WALL (    2317 calls)
     fft_scatt_yz :      0.13s CPU      0.13s WALL (    2317 calls)
 
     PWSCF        :     3.72s CPU         5.17s WALL

 
   This run was terminated on:  18:54:37  22Jun2021            

=------------------------------------------------------------------------------=
   JOB DONE.
=------------------------------------------------------------------------------=
