
     Program PWSCF v.6.2 (svn rev. 14038) starts on 22Jun2021 at 18:51:50 

     This program is part of the open-source Quantum ESPRESSO suite
     for quantum simulation of materials; please cite
         "P. Giannozzi et al., J. Phys.:Condens. Matter 21 395502 (2009);
         "P. Giannozzi et al., J. Phys.:Condens. Matter 29 465901 (2017);
          URL http://www.quantum-espresso.org", 
     in publications or presentations arising from this work. More details at
     http://www.quantum-espresso.org/quote

     Parallel version (MPI), running on    12 processors

     MPI processes distributed on     1 nodes
     R & G space division:  proc/nbgrp/npool/nimage =      12
     Waiting for input...
     Reading input from standard input

     Current dimensions of program PWSCF are:
     Max number of different atomic species (ntypx) = 10
     Max number of k-points (npk) =  40000
     Max angular momentum in pseudopotentials (lmaxx) =  3
               file Ir.pbe-n-rrkjus_psl.0.2.3.UPF: wavefunction(s)  5D renormalized

     gamma-point specific algorithms are used

     Subspace diagonalization in iterative solution of the eigenvalue problem:
     a serial algorithm will be used

 
     Parallelization info
     --------------------
     sticks:   dense  smooth     PW     G-vecs:    dense   smooth      PW
     Min         353     140     34                17398     4383     546
     Max         356     144     36                17404     4390     556
     Sum        4257    1701    421               208801    52635    6619
 


     bravais-lattice index     =            0
     lattice parameter (alat)  =      13.3514  a.u.
     unit-cell volume          =    2380.0325 (a.u.)^3
     number of atoms/cell      =           25
     number of atomic types    =            4
     number of electrons       =        72.00
     number of Kohn-Sham states=          100
     kinetic-energy cutoff     =      30.0000  Ry
     charge density cutoff     =     300.0000  Ry
     convergence threshold     =      1.0E-04
     mixing beta               =       0.3000
     number of iterations used =            8  plain     mixing
     Exchange-correlation      = PBE ( 1  4  3  4 0 0)

     celldm(1)=  13.351425  celldm(2)=   0.000000  celldm(3)=   0.000000
     celldm(4)=   0.000000  celldm(5)=   0.000000  celldm(6)=   0.000000

     crystal axes: (cart. coord. in units of alat)
               a(1) = (   1.000000   0.000000   0.000000 )  
               a(2) = (   0.000000   1.000000   0.000000 )  
               a(3) = (   0.000000   0.000000   1.000000 )  

     reciprocal axes: (cart. coord. in units 2 pi/alat)
               b(1) = (  1.000000  0.000000  0.000000 )  
               b(2) = (  0.000000  1.000000  0.000000 )  
               b(3) = (  0.000000  0.000000  1.000000 )  


     PseudoPot. # 1 for C  read from file:
     /util/academic/espresso/6.2.1/pseudopotentials/upf_files/C.pbe-n-rrkjus_psl.0.1.UPF
     MD5 check sum: ab446d787031eba755f1d5ee46644bb0
     Pseudo is Ultrasoft + core correction, Zval =  4.0
     Generated using "atomic" code by A. Dal Corso v.5.0.2 svn rev. 9415
     Using radial grid of 1073 points,  4 beta functions with: 
                l(1) =   0
                l(2) =   0
                l(3) =   1
                l(4) =   1
     Q(r) pseudized with 0 coefficients 


     PseudoPot. # 2 for H  read from file:
     /util/academic/espresso/6.2.1/pseudopotentials/upf_files/H.pbe-rrkjus_psl.0.1.UPF
     MD5 check sum: bd57da0722753ddfd9833a65b40bb853
     Pseudo is Ultrasoft, Zval =  1.0
     Generated using "atomic" code by A. Dal Corso v.5.0.2 svn rev. 9415
     Using radial grid of  929 points,  2 beta functions with: 
                l(1) =   0
                l(2) =   0
     Q(r) pseudized with 0 coefficients 


     PseudoPot. # 3 for Ir read from file:
     /util/academic/espresso/6.2.1/pseudopotentials/upf_files/Ir.pbe-n-rrkjus_psl.0.2.3.UPF
     MD5 check sum: 0d5bc36db6a0bde07ee800c0d8fcbb77
     Pseudo is Ultrasoft + core correction, Zval =  9.0
     Generated using "atomic" code by A. Dal Corso v.5.0.2 svn rev. 9415
     Using radial grid of 1277 points,  6 beta functions with: 
                l(1) =   0
                l(2) =   0
                l(3) =   1
                l(4) =   1
                l(5) =   2
                l(6) =   2
     Q(r) pseudized with 0 coefficients 


     PseudoPot. # 4 for N  read from file:
     /util/academic/espresso/6.2.1/pseudopotentials/upf_files/N.pbe-n-rrkjus_psl.0.1.UPF
     MD5 check sum: ed8b6a90f28a53b7d71920e7015d2dd6
     Pseudo is Ultrasoft + core correction, Zval =  5.0
     Generated using "atomic" code by A. Dal Corso v.5.0.2 svn rev. 9415
     Using radial grid of 1085 points,  4 beta functions with: 
                l(1) =   0
                l(2) =   0
                l(3) =   1
                l(4) =   1
     Q(r) pseudized with 0 coefficients 


     atomic species   valence    mass     pseudopotential
        C              4.00    12.01000     C ( 1.00)
        H              1.00     1.00700     H ( 1.00)
        Ir             9.00   192.21700     Ir( 1.00)
        N              5.00    14.00600     N ( 1.00)

     No symmetry found



   Cartesian axes

     site n.     atom                  positions (alat units)
         1           Ir  tau(   1) = (   0.0000000   0.0000000  -0.0009950  )
         2           N   tau(   2) = (   0.1348243  -0.2162295  -0.1597207  )
         3           N   tau(   3) = (  -0.2546725  -0.0086465  -0.1597207  )
         4           N   tau(   4) = (   0.1198482   0.2248761  -0.1597207  )
         5           C   tau(   5) = (  -0.0681418   0.2260635   0.1519064  )
         6           C   tau(   6) = (   0.2298483  -0.0540192   0.1519064  )
         7           C   tau(   7) = (   0.2914581  -0.2765542  -0.0857929  )
         8           C   tau(   8) = (   0.3491176  -0.1916714   0.0872069  )
         9           C   tau(   9) = (  -0.1617065  -0.1720444   0.1519064  )
        10           C   tau(  10) = (   0.0937742   0.3906871  -0.0857929  )
        11           C   tau(  11) = (  -0.0085673   0.3981801   0.0872069  )
        12           C   tau(  12) = (  -0.3852323  -0.1141329  -0.0857929  )
        13           C   tau(  13) = (  -0.3405517  -0.2065087   0.0872069  )
        14           H   tau(  14) = (   0.2658625   0.0152294   0.2851214  )
        15           H   tau(  15) = (   0.4774595  -0.2367482   0.1583521  )
        16           H   tau(  16) = (   0.3734012  -0.3877941  -0.1545206  )
        17           H   tau(  17) = (   0.1491380   0.5172725  -0.1545206  )
        18           H   tau(  18) = (  -0.0337001   0.5318664   0.1583521  )
        19           H   tau(  19) = (  -0.1461204   0.2226284   0.2851214  )
        20           H   tau(  20) = (  -0.4437594  -0.2951182   0.1583521  )
        21           H   tau(  21) = (  -0.1197421  -0.2378579   0.2851214  )
        22           H   tau(  22) = (  -0.5225405  -0.1294784  -0.1545206  )
        23           H   tau(  23) = (   0.0944550  -0.2782045  -0.2822228  )
        24           H   tau(  24) = (   0.1937039   0.2209031  -0.2822228  )
        25           H   tau(  25) = (  -0.2881588   0.0573014  -0.2822228  )

     number of k points=     1  gaussian smearing, width (Ry)=  0.0100
                       cart. coord. in units 2pi/alat
        k(    1) = (   0.0000000   0.0000000   0.0000000), wk =   2.0000000

     Dense  grid:   104401 G-vectors     FFT dimensions: (  75,  75,  75)

     Smooth grid:    26318 G-vectors     FFT dimensions: (  48,  48,  48)

     Estimated max dynamical RAM per process >      46.16 MB

     Estimated total dynamical RAM >     553.92 MB

     Check: negative/imaginary core charge=   -0.000002    0.000000

     Initial potential from superposition of free atoms

     starting charge   71.99934, renormalised to   72.00000
     Starting wfc are   69 randomized atomic wfcs +   31 random wfc

     total cpu time spent up to now is        2.5 secs

     Self-consistent Calculation

     iteration #  1     ecut=    30.00 Ry     beta= 0.30
     Davidson diagonalization with overlap
     ethr =  1.00E-02,  avg # of iterations =  5.0

     total cpu time spent up to now is        2.9 secs

     total energy              =    -243.30522395 Ry
     Harris-Foulkes estimate   =    -244.63339690 Ry
     estimated scf accuracy    <       3.47922205 Ry

     iteration #  2     ecut=    30.00 Ry     beta= 0.30
     Davidson diagonalization with overlap
     ethr =  4.83E-03,  avg # of iterations =  1.0

     total cpu time spent up to now is        3.1 secs

     total energy              =    -243.39781302 Ry
     Harris-Foulkes estimate   =    -243.73821744 Ry
     estimated scf accuracy    <       0.97333805 Ry

     iteration #  3     ecut=    30.00 Ry     beta= 0.30
     Davidson diagonalization with overlap
     ethr =  1.35E-03,  avg # of iterations =  4.0

     total cpu time spent up to now is        3.4 secs

     total energy              =    -243.43412808 Ry
     Harris-Foulkes estimate   =    -243.55351109 Ry
     estimated scf accuracy    <       0.36864419 Ry

     iteration #  4     ecut=    30.00 Ry     beta= 0.30
     Davidson diagonalization with overlap
     ethr =  5.12E-04,  avg # of iterations =  2.0

     negative rho (up, down):  4.513E-08 0.000E+00

     total cpu time spent up to now is        3.6 secs

     total energy              =    -243.46220935 Ry
     Harris-Foulkes estimate   =    -243.47930872 Ry
     estimated scf accuracy    <       0.05347005 Ry

     iteration #  5     ecut=    30.00 Ry     beta= 0.30
     Davidson diagonalization with overlap
     ethr =  7.43E-05,  avg # of iterations =  5.0

     negative rho (up, down):  3.283E-08 0.000E+00

     total cpu time spent up to now is        3.9 secs

     total energy              =    -243.47125939 Ry
     Harris-Foulkes estimate   =    -243.47239844 Ry
     estimated scf accuracy    <       0.00630568 Ry

     iteration #  6     ecut=    30.00 Ry     beta= 0.30
     Davidson diagonalization with overlap
     ethr =  8.76E-06,  avg # of iterations =  2.0

     total cpu time spent up to now is        4.1 secs

     total energy              =    -243.47165089 Ry
     Harris-Foulkes estimate   =    -243.47171816 Ry
     estimated scf accuracy    <       0.00099877 Ry

     iteration #  7     ecut=    30.00 Ry     beta= 0.30
     Davidson diagonalization with overlap
     ethr =  1.39E-06,  avg # of iterations =  1.0

     total cpu time spent up to now is        4.3 secs

     total energy              =    -243.47175712 Ry
     Harris-Foulkes estimate   =    -243.47174244 Ry
     estimated scf accuracy    <       0.00011869 Ry

     iteration #  8     ecut=    30.00 Ry     beta= 0.30
     Davidson diagonalization with overlap
     ethr =  1.65E-07,  avg # of iterations =  3.0

     total cpu time spent up to now is        4.6 secs

     End of self-consistent calculation

          k = 0.0000 0.0000 0.0000 (  3310 PWs)   bands (ev):

   -18.8946 -18.3268 -18.1378 -16.0557 -13.9354 -13.7287 -11.9800 -11.5483
   -10.9255 -10.5570  -9.0471  -8.5651  -8.3795  -7.6118  -7.5956  -7.2570
    -5.9912  -5.7169  -5.5341  -5.1963  -4.9135  -4.4433  -4.3865  -4.1505
    -4.0669  -3.7916  -2.9424  -2.4833  -2.0726  -1.9481  -1.6778  -1.4257
    -0.6321  -0.3235  -0.1131   0.4007   1.9925   2.6126   3.0086   3.2771
     5.0371   5.1461   5.2426   5.4801   5.7371   5.9171   5.9572   6.0689
     6.6537   6.7195   6.9707   7.3506   7.8704   8.1252   8.2798   8.5314
     8.7332   9.0189   9.3323   9.3459   9.5770   9.7033  10.0389  10.4967
    10.8972  10.9946  11.0944  11.2608  11.5841  11.7331  11.9494  12.1725
    12.5514  12.6673  12.7973  12.8807  13.1709  13.3444  13.5641  13.8259
    13.9740  14.2002  14.3034  14.5470  14.7493  14.8923  14.9714  15.1559
    15.2543  15.4136  15.4672  15.7284  16.0265  16.1742  16.5803  16.6108
    16.7073  16.8456  17.0422  17.1748

     the Fermi energy is     1.1424 ev

!    total energy              =    -243.47183586 Ry
     Harris-Foulkes estimate   =    -243.47179228 Ry
     estimated scf accuracy    <       0.00002328 Ry

     The total energy is the sum of the following terms:

     one-electron contribution =    -356.36692765 Ry
     hartree contribution      =     202.35420399 Ry
     xc contribution           =     -93.80087285 Ry
     ewald contribution        =       4.34176065 Ry
     smearing contrib. (-TS)   =      -0.00000000 Ry

     convergence has been achieved in   8 iterations

     Writing output data file x0.save
 
     init_run     :      0.36s CPU      0.41s WALL (       1 calls)
     electrons    :      2.01s CPU      2.13s WALL (       1 calls)

     Called by init_run:
     wfcinit      :      0.03s CPU      0.04s WALL (       1 calls)
     potinit      :      0.07s CPU      0.08s WALL (       1 calls)

     Called by electrons:
     c_bands      :      0.96s CPU      0.98s WALL (       8 calls)
     sum_band     :      0.49s CPU      0.51s WALL (       8 calls)
     v_of_rho     :      0.25s CPU      0.26s WALL (       9 calls)
     newd         :      0.31s CPU      0.33s WALL (       9 calls)
     mix_rho      :      0.03s CPU      0.03s WALL (       8 calls)

     Called by c_bands:
     init_us_2    :      0.00s CPU      0.00s WALL (      17 calls)
     regterg      :      0.94s CPU      0.96s WALL (       8 calls)

     Called by sum_band:
     sum_band:bec :      0.00s CPU      0.00s WALL (       8 calls)
     addusdens    :      0.34s CPU      0.35s WALL (       8 calls)

     Called by *egterg:
     h_psi        :      0.49s CPU      0.50s WALL (      32 calls)
     s_psi        :      0.01s CPU      0.01s WALL (      32 calls)
     g_psi        :      0.00s CPU      0.00s WALL (      23 calls)
     rdiaghg      :      0.35s CPU      0.35s WALL (      31 calls)

     Called by h_psi:
     h_psi:pot    :      0.49s CPU      0.50s WALL (      32 calls)
     h_psi:calbec :      0.02s CPU      0.02s WALL (      32 calls)
     vloc_psi     :      0.46s CPU      0.47s WALL (      32 calls)
     add_vuspsi   :      0.01s CPU      0.01s WALL (      32 calls)

     General routines
     calbec       :      0.03s CPU      0.03s WALL (      40 calls)
     fft          :      0.37s CPU      0.38s WALL (     140 calls)
     ffts         :      0.01s CPU      0.01s WALL (      17 calls)
     fftw         :      0.48s CPU      0.50s WALL (    2480 calls)
     interpolate  :      0.04s CPU      0.04s WALL (      17 calls)
 
     Parallel routines
     fft_scatt_xy :      0.04s CPU      0.04s WALL (    2637 calls)
     fft_scatt_yz :      0.31s CPU      0.33s WALL (    2637 calls)
 
     PWSCF        :     3.97s CPU         5.10s WALL

 
   This run was terminated on:  18:51:55  22Jun2021            

=------------------------------------------------------------------------------=
   JOB DONE.
=------------------------------------------------------------------------------=
