
     Program PWSCF v.6.2 (svn rev. 14038) starts on 22Jun2021 at 18:56:52 

     This program is part of the open-source Quantum ESPRESSO suite
     for quantum simulation of materials; please cite
         "P. Giannozzi et al., J. Phys.:Condens. Matter 21 395502 (2009);
         "P. Giannozzi et al., J. Phys.:Condens. Matter 29 465901 (2017);
          URL http://www.quantum-espresso.org", 
     in publications or presentations arising from this work. More details at
     http://www.quantum-espresso.org/quote

     Parallel version (MPI), running on    12 processors

     MPI processes distributed on     1 nodes
     R & G space division:  proc/nbgrp/npool/nimage =      12
     Waiting for input...
     Reading input from standard input

     Current dimensions of program PWSCF are:
     Max number of different atomic species (ntypx) = 10
     Max number of k-points (npk) =  40000
     Max angular momentum in pseudopotentials (lmaxx) =  3
               file Ir.pbe-n-rrkjus_psl.0.2.3.UPF: wavefunction(s)  5D renormalized

     gamma-point specific algorithms are used

     Subspace diagonalization in iterative solution of the eigenvalue problem:
     a serial algorithm will be used

 
     Parallelization info
     --------------------
     sticks:   dense  smooth     PW     G-vecs:    dense   smooth      PW
     Min         353     140     34                17398     4383     546
     Max         356     144     36                17404     4390     556
     Sum        4257    1701    421               208801    52635    6619
 


     bravais-lattice index     =            0
     lattice parameter (alat)  =      13.3514  a.u.
     unit-cell volume          =    2380.0325 (a.u.)^3
     number of atoms/cell      =           25
     number of atomic types    =            4
     number of electrons       =        72.00
     number of Kohn-Sham states=          100
     kinetic-energy cutoff     =      30.0000  Ry
     charge density cutoff     =     300.0000  Ry
     convergence threshold     =      1.0E-04
     mixing beta               =       0.3000
     number of iterations used =            8  plain     mixing
     Exchange-correlation      = PBE ( 1  4  3  4 0 0)

     celldm(1)=  13.351425  celldm(2)=   0.000000  celldm(3)=   0.000000
     celldm(4)=   0.000000  celldm(5)=   0.000000  celldm(6)=   0.000000

     crystal axes: (cart. coord. in units of alat)
               a(1) = (   1.000000   0.000000   0.000000 )  
               a(2) = (   0.000000   1.000000   0.000000 )  
               a(3) = (   0.000000   0.000000   1.000000 )  

     reciprocal axes: (cart. coord. in units 2 pi/alat)
               b(1) = (  1.000000  0.000000  0.000000 )  
               b(2) = (  0.000000  1.000000  0.000000 )  
               b(3) = (  0.000000  0.000000  1.000000 )  


     PseudoPot. # 1 for C  read from file:
     /util/academic/espresso/6.2.1/pseudopotentials/upf_files/C.pbe-n-rrkjus_psl.0.1.UPF
     MD5 check sum: ab446d787031eba755f1d5ee46644bb0
     Pseudo is Ultrasoft + core correction, Zval =  4.0
     Generated using "atomic" code by A. Dal Corso v.5.0.2 svn rev. 9415
     Using radial grid of 1073 points,  4 beta functions with: 
                l(1) =   0
                l(2) =   0
                l(3) =   1
                l(4) =   1
     Q(r) pseudized with 0 coefficients 


     PseudoPot. # 2 for H  read from file:
     /util/academic/espresso/6.2.1/pseudopotentials/upf_files/H.pbe-rrkjus_psl.0.1.UPF
     MD5 check sum: bd57da0722753ddfd9833a65b40bb853
     Pseudo is Ultrasoft, Zval =  1.0
     Generated using "atomic" code by A. Dal Corso v.5.0.2 svn rev. 9415
     Using radial grid of  929 points,  2 beta functions with: 
                l(1) =   0
                l(2) =   0
     Q(r) pseudized with 0 coefficients 


     PseudoPot. # 3 for Ir read from file:
     /util/academic/espresso/6.2.1/pseudopotentials/upf_files/Ir.pbe-n-rrkjus_psl.0.2.3.UPF
     MD5 check sum: 0d5bc36db6a0bde07ee800c0d8fcbb77
     Pseudo is Ultrasoft + core correction, Zval =  9.0
     Generated using "atomic" code by A. Dal Corso v.5.0.2 svn rev. 9415
     Using radial grid of 1277 points,  6 beta functions with: 
                l(1) =   0
                l(2) =   0
                l(3) =   1
                l(4) =   1
                l(5) =   2
                l(6) =   2
     Q(r) pseudized with 0 coefficients 


     PseudoPot. # 4 for N  read from file:
     /util/academic/espresso/6.2.1/pseudopotentials/upf_files/N.pbe-n-rrkjus_psl.0.1.UPF
     MD5 check sum: ed8b6a90f28a53b7d71920e7015d2dd6
     Pseudo is Ultrasoft + core correction, Zval =  5.0
     Generated using "atomic" code by A. Dal Corso v.5.0.2 svn rev. 9415
     Using radial grid of 1085 points,  4 beta functions with: 
                l(1) =   0
                l(2) =   0
                l(3) =   1
                l(4) =   1
     Q(r) pseudized with 0 coefficients 


     atomic species   valence    mass     pseudopotential
        C              4.00    12.01000     C ( 1.00)
        H              1.00     1.00700     H ( 1.00)
        Ir             9.00   192.21700     Ir( 1.00)
        N              5.00    14.00600     N ( 1.00)

     No symmetry found



   Cartesian axes

     site n.     atom                  positions (alat units)
         1           Ir  tau(   1) = (  -0.0001295   0.0056002   0.0026619  )
         2           N   tau(   2) = (   0.1608793  -0.1900542  -0.1602272  )
         3           N   tau(   3) = (  -0.2372166   0.0050620  -0.1730097  )
         4           N   tau(   4) = (   0.1052718   0.2165104  -0.1711356  )
         5           C   tau(   5) = (  -0.0835057   0.2244438   0.1489347  )
         6           C   tau(   6) = (   0.2191427  -0.0545186   0.1782531  )
         7           C   tau(   7) = (   0.2819163  -0.2840824  -0.0478618  )
         8           C   tau(   8) = (   0.3181671  -0.2124022   0.1407936  )
         9           C   tau(   9) = (  -0.1570897  -0.1859486   0.1302572  )
        10           C   tau(  10) = (   0.0717774   0.3772231  -0.0994436  )
        11           C   tau(  11) = (  -0.0075753   0.3922461   0.0832005  )
        12           C   tau(  12) = (  -0.3567125  -0.1386923  -0.1329501  )
        13           C   tau(  13) = (  -0.3173401  -0.2342628   0.0408959  )
        14           H   tau(  14) = (   0.2407910   0.0202830   0.3139638  )
        15           H   tau(  15) = (   0.4215218  -0.2880662   0.2271311  )
        16           H   tau(  16) = (   0.3645301  -0.4042712  -0.1092582  )
        17           H   tau(  17) = (   0.0871890   0.5223303  -0.1780516  )
        18           H   tau(  18) = (  -0.0088386   0.5265801   0.1650657  )
        19           H   tau(  19) = (  -0.1792475   0.2222405   0.2800674  )
        20           H   tau(  20) = (  -0.3901230  -0.3625593   0.0731440  )
        21           H   tau(  21) = (  -0.1191983  -0.2661787   0.2633495  )
        22           H   tau(  22) = (  -0.4749602  -0.1643746  -0.2355011  )
        23           H   tau(  23) = (   0.1669477  -0.2014921  -0.3045684  )
        24           H   tau(  24) = (   0.1436688   0.1973851  -0.3078408  )
        25           H   tau(  25) = (  -0.2576796   0.0741730  -0.3014441  )

     number of k points=     1  gaussian smearing, width (Ry)=  0.0100
                       cart. coord. in units 2pi/alat
        k(    1) = (   0.0000000   0.0000000   0.0000000), wk =   2.0000000

     Dense  grid:   104401 G-vectors     FFT dimensions: (  75,  75,  75)

     Smooth grid:    26318 G-vectors     FFT dimensions: (  48,  48,  48)

     Estimated max dynamical RAM per process >      46.16 MB

     Estimated total dynamical RAM >     553.92 MB

     Check: negative/imaginary core charge=   -0.000002    0.000000

     Initial potential from superposition of free atoms

     starting charge   71.99934, renormalised to   72.00000
     Starting wfc are   69 randomized atomic wfcs +   31 random wfc

     total cpu time spent up to now is        2.5 secs

     Self-consistent Calculation

     iteration #  1     ecut=    30.00 Ry     beta= 0.30
     Davidson diagonalization with overlap
     ethr =  1.00E-02,  avg # of iterations =  5.0

     total cpu time spent up to now is        2.9 secs

     total energy              =    -243.65869420 Ry
     Harris-Foulkes estimate   =    -244.93779269 Ry
     estimated scf accuracy    <       3.34125356 Ry

     iteration #  2     ecut=    30.00 Ry     beta= 0.30
     Davidson diagonalization with overlap
     ethr =  4.64E-03,  avg # of iterations =  1.0

     total cpu time spent up to now is        3.1 secs

     total energy              =    -243.77294954 Ry
     Harris-Foulkes estimate   =    -244.06741266 Ry
     estimated scf accuracy    <       0.83760286 Ry

     iteration #  3     ecut=    30.00 Ry     beta= 0.30
     Davidson diagonalization with overlap
     ethr =  1.16E-03,  avg # of iterations =  4.0

     total cpu time spent up to now is        3.3 secs

     total energy              =    -243.80971432 Ry
     Harris-Foulkes estimate   =    -243.91150822 Ry
     estimated scf accuracy    <       0.33191510 Ry

     iteration #  4     ecut=    30.00 Ry     beta= 0.30
     Davidson diagonalization with overlap
     ethr =  4.61E-04,  avg # of iterations =  4.0

     negative rho (up, down):  1.251E-07 0.000E+00

     total cpu time spent up to now is        3.6 secs

     total energy              =    -243.83204132 Ry
     Harris-Foulkes estimate   =    -243.85064666 Ry
     estimated scf accuracy    <       0.05594197 Ry

     iteration #  5     ecut=    30.00 Ry     beta= 0.30
     Davidson diagonalization with overlap
     ethr =  7.77E-05,  avg # of iterations = 13.0

     negative rho (up, down):  2.517E-07 0.000E+00

     total cpu time spent up to now is        4.1 secs

     total energy              =    -243.84041423 Ry
     Harris-Foulkes estimate   =    -243.84133943 Ry
     estimated scf accuracy    <       0.00522301 Ry

     iteration #  6     ecut=    30.00 Ry     beta= 0.30
     Davidson diagonalization with overlap
     ethr =  7.25E-06,  avg # of iterations =  5.0

     negative rho (up, down):  1.095E-07 0.000E+00

     total cpu time spent up to now is        4.3 secs

     total energy              =    -243.84084690 Ry
     Harris-Foulkes estimate   =    -243.84094926 Ry
     estimated scf accuracy    <       0.00087543 Ry

     iteration #  7     ecut=    30.00 Ry     beta= 0.30
     Davidson diagonalization with overlap
     ethr =  1.22E-06,  avg # of iterations =  2.0

     total cpu time spent up to now is        4.6 secs

     total energy              =    -243.84094145 Ry
     Harris-Foulkes estimate   =    -243.84091962 Ry
     estimated scf accuracy    <       0.00010407 Ry

     iteration #  8     ecut=    30.00 Ry     beta= 0.30
     Davidson diagonalization with overlap
     ethr =  1.45E-07,  avg # of iterations =  3.0

     total cpu time spent up to now is        4.8 secs

     End of self-consistent calculation

          k = 0.0000 0.0000 0.0000 (  3310 PWs)   bands (ev):

   -18.5006 -17.9882 -17.6606 -14.3714 -14.0334 -13.9169 -11.4466 -10.7206
   -10.5463  -9.1227  -8.8032  -8.1871  -8.0422  -7.9731  -7.5106  -6.4156
    -6.1392  -5.7092  -5.5454  -5.1656  -5.0499  -4.7633  -4.2798  -4.1765
    -3.9094  -3.6518  -3.4077  -2.3930  -2.2953  -2.0431  -1.7169  -1.5689
    -1.1658  -0.4544  -0.2554   0.2212   2.0546   2.5299   3.0990   3.1747
     4.6472   5.0463   5.3534   5.5352   5.5864   5.8021   6.0478   6.1984
     6.6131   6.7609   6.9424   7.3869   7.7118   7.7654   8.1804   8.3143
     8.5132   8.5807   9.1198   9.2637   9.5375   9.8266  10.0015  10.5895
    10.7761  11.0316  11.0371  11.1628  11.5193  11.6691  11.9754  12.2435
    12.3805  12.4579  12.7265  12.7845  12.9612  13.1218  13.4289  13.7156
    13.9166  14.1056  14.2609  14.3792  14.5269  14.6344  14.6514  14.8997
    15.0823  15.3037  15.5182  15.8346  15.9078  16.0309  16.2058  16.3815
    16.6256  16.8156  16.9824  17.0903

     the Fermi energy is     0.9887 ev

!    total energy              =    -243.84100401 Ry
     Harris-Foulkes estimate   =    -243.84096486 Ry
     estimated scf accuracy    <       0.00001952 Ry

     The total energy is the sum of the following terms:

     one-electron contribution =    -337.57077094 Ry
     hartree contribution      =     192.96059722 Ry
     xc contribution           =     -93.22356294 Ry
     ewald contribution        =      -6.00726735 Ry
     smearing contrib. (-TS)   =      -0.00000000 Ry

     convergence has been achieved in   8 iterations

     Writing output data file x0.save
 
     init_run     :      0.37s CPU      0.43s WALL (       1 calls)
     electrons    :      2.27s CPU      2.41s WALL (       1 calls)

     Called by init_run:
     wfcinit      :      0.03s CPU      0.04s WALL (       1 calls)
     potinit      :      0.07s CPU      0.08s WALL (       1 calls)

     Called by electrons:
     c_bands      :      1.21s CPU      1.24s WALL (       8 calls)
     sum_band     :      0.50s CPU      0.51s WALL (       8 calls)
     v_of_rho     :      0.25s CPU      0.26s WALL (       9 calls)
     newd         :      0.31s CPU      0.33s WALL (       9 calls)
     mix_rho      :      0.03s CPU      0.03s WALL (       8 calls)

     Called by c_bands:
     init_us_2    :      0.00s CPU      0.01s WALL (      17 calls)
     regterg      :      1.20s CPU      1.22s WALL (       8 calls)

     Called by sum_band:
     sum_band:bec :      0.00s CPU      0.00s WALL (       8 calls)
     addusdens    :      0.34s CPU      0.35s WALL (       8 calls)

     Called by *egterg:
     h_psi        :      0.48s CPU      0.50s WALL (      46 calls)
     s_psi        :      0.01s CPU      0.01s WALL (      46 calls)
     g_psi        :      0.00s CPU      0.00s WALL (      37 calls)
     rdiaghg      :      0.58s CPU      0.59s WALL (      45 calls)

     Called by h_psi:
     h_psi:pot    :      0.48s CPU      0.50s WALL (      46 calls)
     h_psi:calbec :      0.02s CPU      0.02s WALL (      46 calls)
     vloc_psi     :      0.45s CPU      0.46s WALL (      46 calls)
     add_vuspsi   :      0.01s CPU      0.01s WALL (      46 calls)

     General routines
     calbec       :      0.03s CPU      0.03s WALL (      54 calls)
     fft          :      0.27s CPU      0.28s WALL (     140 calls)
     ffts         :      0.01s CPU      0.01s WALL (      17 calls)
     fftw         :      0.47s CPU      0.49s WALL (    2486 calls)
     interpolate  :      0.04s CPU      0.04s WALL (      17 calls)
 
     Parallel routines
     fft_scatt_xy :      0.04s CPU      0.04s WALL (    2643 calls)
     fft_scatt_yz :      0.16s CPU      0.17s WALL (    2643 calls)
 
     PWSCF        :     4.18s CPU         5.72s WALL

 
   This run was terminated on:  18:56:58  22Jun2021            

=------------------------------------------------------------------------------=
   JOB DONE.
=------------------------------------------------------------------------------=
