
     Program PWSCF v.6.2 (svn rev. 14038) starts on 22Jun2021 at 18:58:38 

     This program is part of the open-source Quantum ESPRESSO suite
     for quantum simulation of materials; please cite
         "P. Giannozzi et al., J. Phys.:Condens. Matter 21 395502 (2009);
         "P. Giannozzi et al., J. Phys.:Condens. Matter 29 465901 (2017);
          URL http://www.quantum-espresso.org", 
     in publications or presentations arising from this work. More details at
     http://www.quantum-espresso.org/quote

     Parallel version (MPI), running on    12 processors

     MPI processes distributed on     1 nodes
     R & G space division:  proc/nbgrp/npool/nimage =      12
     Waiting for input...
     Reading input from standard input

     Current dimensions of program PWSCF are:
     Max number of different atomic species (ntypx) = 10
     Max number of k-points (npk) =  40000
     Max angular momentum in pseudopotentials (lmaxx) =  3
               file Ir.pbe-n-rrkjus_psl.0.2.3.UPF: wavefunction(s)  5D renormalized

     gamma-point specific algorithms are used

     Subspace diagonalization in iterative solution of the eigenvalue problem:
     a serial algorithm will be used

 
     Parallelization info
     --------------------
     sticks:   dense  smooth     PW     G-vecs:    dense   smooth      PW
     Min         353     140     34                17398     4383     546
     Max         356     144     36                17404     4390     556
     Sum        4257    1701    421               208801    52635    6619
 


     bravais-lattice index     =            0
     lattice parameter (alat)  =      13.3514  a.u.
     unit-cell volume          =    2380.0325 (a.u.)^3
     number of atoms/cell      =           25
     number of atomic types    =            4
     number of electrons       =        72.00
     number of Kohn-Sham states=          100
     kinetic-energy cutoff     =      30.0000  Ry
     charge density cutoff     =     300.0000  Ry
     convergence threshold     =      1.0E-04
     mixing beta               =       0.3000
     number of iterations used =            8  plain     mixing
     Exchange-correlation      = PBE ( 1  4  3  4 0 0)

     celldm(1)=  13.351425  celldm(2)=   0.000000  celldm(3)=   0.000000
     celldm(4)=   0.000000  celldm(5)=   0.000000  celldm(6)=   0.000000

     crystal axes: (cart. coord. in units of alat)
               a(1) = (   1.000000   0.000000   0.000000 )  
               a(2) = (   0.000000   1.000000   0.000000 )  
               a(3) = (   0.000000   0.000000   1.000000 )  

     reciprocal axes: (cart. coord. in units 2 pi/alat)
               b(1) = (  1.000000  0.000000  0.000000 )  
               b(2) = (  0.000000  1.000000  0.000000 )  
               b(3) = (  0.000000  0.000000  1.000000 )  


     PseudoPot. # 1 for C  read from file:
     /util/academic/espresso/6.2.1/pseudopotentials/upf_files/C.pbe-n-rrkjus_psl.0.1.UPF
     MD5 check sum: ab446d787031eba755f1d5ee46644bb0
     Pseudo is Ultrasoft + core correction, Zval =  4.0
     Generated using "atomic" code by A. Dal Corso v.5.0.2 svn rev. 9415
     Using radial grid of 1073 points,  4 beta functions with: 
                l(1) =   0
                l(2) =   0
                l(3) =   1
                l(4) =   1
     Q(r) pseudized with 0 coefficients 


     PseudoPot. # 2 for H  read from file:
     /util/academic/espresso/6.2.1/pseudopotentials/upf_files/H.pbe-rrkjus_psl.0.1.UPF
     MD5 check sum: bd57da0722753ddfd9833a65b40bb853
     Pseudo is Ultrasoft, Zval =  1.0
     Generated using "atomic" code by A. Dal Corso v.5.0.2 svn rev. 9415
     Using radial grid of  929 points,  2 beta functions with: 
                l(1) =   0
                l(2) =   0
     Q(r) pseudized with 0 coefficients 


     PseudoPot. # 3 for Ir read from file:
     /util/academic/espresso/6.2.1/pseudopotentials/upf_files/Ir.pbe-n-rrkjus_psl.0.2.3.UPF
     MD5 check sum: 0d5bc36db6a0bde07ee800c0d8fcbb77
     Pseudo is Ultrasoft + core correction, Zval =  9.0
     Generated using "atomic" code by A. Dal Corso v.5.0.2 svn rev. 9415
     Using radial grid of 1277 points,  6 beta functions with: 
                l(1) =   0
                l(2) =   0
                l(3) =   1
                l(4) =   1
                l(5) =   2
                l(6) =   2
     Q(r) pseudized with 0 coefficients 


     PseudoPot. # 4 for N  read from file:
     /util/academic/espresso/6.2.1/pseudopotentials/upf_files/N.pbe-n-rrkjus_psl.0.1.UPF
     MD5 check sum: ed8b6a90f28a53b7d71920e7015d2dd6
     Pseudo is Ultrasoft + core correction, Zval =  5.0
     Generated using "atomic" code by A. Dal Corso v.5.0.2 svn rev. 9415
     Using radial grid of 1085 points,  4 beta functions with: 
                l(1) =   0
                l(2) =   0
                l(3) =   1
                l(4) =   1
     Q(r) pseudized with 0 coefficients 


     atomic species   valence    mass     pseudopotential
        C              4.00    12.01000     C ( 1.00)
        H              1.00     1.00700     H ( 1.00)
        Ir             9.00   192.21700     Ir( 1.00)
        N              5.00    14.00600     N ( 1.00)

     No symmetry found



   Cartesian axes

     site n.     atom                  positions (alat units)
         1           Ir  tau(   1) = (   0.0004357   0.0064962   0.0042902  )
         2           N   tau(   2) = (   0.1743687  -0.1915293  -0.1591167  )
         3           N   tau(   3) = (  -0.2336807   0.0076684  -0.1831007  )
         4           N   tau(   4) = (   0.1030703   0.2218199  -0.1673163  )
         5           C   tau(   5) = (  -0.0902220   0.2234518   0.1584806  )
         6           C   tau(   6) = (   0.2087070  -0.0556456   0.1897918  )
         7           C   tau(   7) = (   0.2862829  -0.2845810  -0.0465729  )
         8           C   tau(   8) = (   0.3062478  -0.2132045   0.1474292  )
         9           C   tau(   9) = (  -0.1560197  -0.1979114   0.1208474  )
        10           C   tau(  10) = (   0.0664042   0.3835713  -0.1018339  )
        11           C   tau(  11) = (  -0.0235926   0.3937272   0.0858217  )
        12           C   tau(  12) = (  -0.3446288  -0.1357957  -0.1448074  )
        13           C   tau(  13) = (  -0.3088552  -0.2518071   0.0132364  )
        14           H   tau(  14) = (   0.2618194   0.0233625   0.3243197  )
        15           H   tau(  15) = (   0.4154619  -0.2795488   0.2473549  )
        16           H   tau(  16) = (   0.3724489  -0.3923470  -0.1139937  )
        17           H   tau(  17) = (   0.0974905   0.5079856  -0.2053439  )
        18           H   tau(  18) = (  -0.0238673   0.5301781   0.1594372  )
        19           H   tau(  19) = (  -0.1737802   0.2176162   0.2918637  )
        20           H   tau(  20) = (  -0.4061685  -0.3583952   0.0576236  )
        21           H   tau(  21) = (  -0.1261869  -0.2514652   0.2592828  )
        22           H   tau(  22) = (  -0.4746210  -0.1547722  -0.2266311  )
        23           H   tau(  23) = (   0.1511816  -0.2348287  -0.2961027  )
        24           H   tau(  24) = (   0.1321614   0.2083616  -0.3048491  )
        25           H   tau(  25) = (  -0.2537131   0.0640741  -0.3111333  )

     number of k points=     1  gaussian smearing, width (Ry)=  0.0100
                       cart. coord. in units 2pi/alat
        k(    1) = (   0.0000000   0.0000000   0.0000000), wk =   2.0000000

     Dense  grid:   104401 G-vectors     FFT dimensions: (  75,  75,  75)

     Smooth grid:    26318 G-vectors     FFT dimensions: (  48,  48,  48)

     Estimated max dynamical RAM per process >      46.16 MB

     Estimated total dynamical RAM >     553.92 MB

     Check: negative/imaginary core charge=   -0.000002    0.000000

     Initial potential from superposition of free atoms

     starting charge   71.99934, renormalised to   72.00000
     Starting wfc are   69 randomized atomic wfcs +   31 random wfc

     total cpu time spent up to now is        2.5 secs

     Self-consistent Calculation

     iteration #  1     ecut=    30.00 Ry     beta= 0.30
     Davidson diagonalization with overlap
     ethr =  1.00E-02,  avg # of iterations =  5.0

     total cpu time spent up to now is        2.9 secs

     total energy              =    -243.67086175 Ry
     Harris-Foulkes estimate   =    -244.94149220 Ry
     estimated scf accuracy    <       3.33044924 Ry

     iteration #  2     ecut=    30.00 Ry     beta= 0.30
     Davidson diagonalization with overlap
     ethr =  4.63E-03,  avg # of iterations =  1.0

     total cpu time spent up to now is        3.1 secs

     total energy              =    -243.78009485 Ry
     Harris-Foulkes estimate   =    -244.08314612 Ry
     estimated scf accuracy    <       0.86648468 Ry

     iteration #  3     ecut=    30.00 Ry     beta= 0.30
     Davidson diagonalization with overlap
     ethr =  1.20E-03,  avg # of iterations =  4.0

     total cpu time spent up to now is        3.3 secs

     total energy              =    -243.81581693 Ry
     Harris-Foulkes estimate   =    -243.92109409 Ry
     estimated scf accuracy    <       0.33910230 Ry

     iteration #  4     ecut=    30.00 Ry     beta= 0.30
     Davidson diagonalization with overlap
     ethr =  4.71E-04,  avg # of iterations =  3.0

     negative rho (up, down):  4.163E-08 0.000E+00

     total cpu time spent up to now is        3.5 secs

     total energy              =    -243.83918964 Ry
     Harris-Foulkes estimate   =    -243.85749336 Ry
     estimated scf accuracy    <       0.05484037 Ry

     iteration #  5     ecut=    30.00 Ry     beta= 0.30
     Davidson diagonalization with overlap
     ethr =  7.62E-05,  avg # of iterations =  6.0

     negative rho (up, down):  1.192E-07 0.000E+00

     total cpu time spent up to now is        3.8 secs

     total energy              =    -243.84786802 Ry
     Harris-Foulkes estimate   =    -243.84873570 Ry
     estimated scf accuracy    <       0.00504331 Ry

     iteration #  6     ecut=    30.00 Ry     beta= 0.30
     Davidson diagonalization with overlap
     ethr =  7.00E-06,  avg # of iterations =  2.0

     negative rho (up, down):  6.201E-08 0.000E+00

     total cpu time spent up to now is        4.1 secs

     total energy              =    -243.84815915 Ry
     Harris-Foulkes estimate   =    -243.84825322 Ry
     estimated scf accuracy    <       0.00084638 Ry

     iteration #  7     ecut=    30.00 Ry     beta= 0.30
     Davidson diagonalization with overlap
     ethr =  1.18E-06,  avg # of iterations =  3.0

     total cpu time spent up to now is        4.3 secs

     End of self-consistent calculation

          k = 0.0000 0.0000 0.0000 (  3310 PWs)   bands (ev):

   -18.6871 -18.3170 -18.0218 -14.2733 -13.9160 -13.7880 -11.4041 -10.7475
   -10.6151  -9.0978  -8.6522  -8.3070  -8.1954  -8.0556  -7.7467  -6.3638
    -5.9715  -5.7610  -5.4233  -5.2385  -5.0197  -4.8080  -4.3246  -4.0114
    -3.9082  -3.7534  -3.6398  -2.2748  -2.2070  -2.0980  -1.7742  -1.5032
    -1.2508  -0.3390  -0.2778   0.1534   2.1366   2.5227   3.1146   3.1575
     4.7059   5.0832   5.2872   5.3877   5.5144   5.6948   5.9637   6.1519
     6.4238   6.6080   6.9198   7.4305   7.7334   7.8234   8.1721   8.2075
     8.4726   8.7037   9.1612   9.2284   9.6281   9.9647  10.1440  10.5716
    10.7587  11.0533  11.1552  11.2114  11.5974  11.7341  11.9088  12.3512
    12.4540  12.4977  12.5662  12.8475  12.9859  13.0493  13.3035  13.7907
    13.9600  14.0536  14.3245  14.4135  14.4613  14.6850  14.7669  14.8837
    15.0532  15.2752  15.4863  15.7178  15.8921  16.1116  16.2461  16.3139
    16.5406  16.8628  16.9087  16.9538

     the Fermi energy is     1.3949 ev

!    total energy              =    -243.84830262 Ry
     Harris-Foulkes estimate   =    -243.84824407 Ry
     estimated scf accuracy    <       0.00007974 Ry

     The total energy is the sum of the following terms:

     one-electron contribution =    -331.30171013 Ry
     hartree contribution      =     189.71975238 Ry
     xc contribution           =     -93.21932757 Ry
     ewald contribution        =      -9.04701731 Ry
     smearing contrib. (-TS)   =      -0.00000000 Ry

     convergence has been achieved in   7 iterations

     Writing output data file x0.save
 
     init_run     :      0.37s CPU      0.65s WALL (       1 calls)
     electrons    :      1.69s CPU      1.79s WALL (       1 calls)

     Called by init_run:
     wfcinit      :      0.04s CPU      0.04s WALL (       1 calls)
     potinit      :      0.07s CPU      0.07s WALL (       1 calls)

     Called by electrons:
     c_bands      :      0.83s CPU      0.86s WALL (       7 calls)
     sum_band     :      0.39s CPU      0.41s WALL (       7 calls)
     v_of_rho     :      0.21s CPU      0.22s WALL (       8 calls)
     newd         :      0.26s CPU      0.53s WALL (       8 calls)
     mix_rho      :      0.02s CPU      0.02s WALL (       7 calls)

     Called by c_bands:
     init_us_2    :      0.00s CPU      0.00s WALL (      15 calls)
     regterg      :      0.82s CPU      0.84s WALL (       7 calls)

     Called by sum_band:
     sum_band:bec :      0.00s CPU      0.00s WALL (       7 calls)
     addusdens    :      0.26s CPU      0.28s WALL (       7 calls)

     Called by *egterg:
     h_psi        :      0.43s CPU      0.44s WALL (      32 calls)
     s_psi        :      0.01s CPU      0.01s WALL (      32 calls)
     g_psi        :      0.00s CPU      0.00s WALL (      24 calls)
     rdiaghg      :      0.32s CPU      0.33s WALL (      31 calls)

     Called by h_psi:
     h_psi:pot    :      0.43s CPU      0.44s WALL (      32 calls)
     h_psi:calbec :      0.02s CPU      0.02s WALL (      32 calls)
     vloc_psi     :      0.40s CPU      0.41s WALL (      32 calls)
     add_vuspsi   :      0.01s CPU      0.01s WALL (      32 calls)

     General routines
     calbec       :      0.02s CPU      0.02s WALL (      39 calls)
     fft          :      0.31s CPU      0.32s WALL (     124 calls)
     ffts         :      0.01s CPU      0.01s WALL (      15 calls)
     fftw         :      0.43s CPU      0.45s WALL (    2176 calls)
     interpolate  :      0.03s CPU      0.03s WALL (      15 calls)
 
     Parallel routines
     fft_scatt_xy :      0.03s CPU      0.04s WALL (    2315 calls)
     fft_scatt_yz :      0.30s CPU      0.31s WALL (    2315 calls)
 
     PWSCF        :     3.75s CPU         4.80s WALL

 
   This run was terminated on:  18:58:42  22Jun2021            

=------------------------------------------------------------------------------=
   JOB DONE.
=------------------------------------------------------------------------------=
