
     Program PWSCF v.6.2 (svn rev. 14038) starts on 22Jun2021 at 18:53:46 

     This program is part of the open-source Quantum ESPRESSO suite
     for quantum simulation of materials; please cite
         "P. Giannozzi et al., J. Phys.:Condens. Matter 21 395502 (2009);
         "P. Giannozzi et al., J. Phys.:Condens. Matter 29 465901 (2017);
          URL http://www.quantum-espresso.org", 
     in publications or presentations arising from this work. More details at
     http://www.quantum-espresso.org/quote

     Parallel version (MPI), running on    12 processors

     MPI processes distributed on     1 nodes
     R & G space division:  proc/nbgrp/npool/nimage =      12
     Waiting for input...
     Reading input from standard input

     Current dimensions of program PWSCF are:
     Max number of different atomic species (ntypx) = 10
     Max number of k-points (npk) =  40000
     Max angular momentum in pseudopotentials (lmaxx) =  3
               file Ir.pbe-n-rrkjus_psl.0.2.3.UPF: wavefunction(s)  5D renormalized

     gamma-point specific algorithms are used

     Subspace diagonalization in iterative solution of the eigenvalue problem:
     a serial algorithm will be used

 
     Parallelization info
     --------------------
     sticks:   dense  smooth     PW     G-vecs:    dense   smooth      PW
     Min         353     140     34                17398     4383     546
     Max         356     144     36                17404     4390     556
     Sum        4257    1701    421               208801    52635    6619
 


     bravais-lattice index     =            0
     lattice parameter (alat)  =      13.3514  a.u.
     unit-cell volume          =    2380.0325 (a.u.)^3
     number of atoms/cell      =           25
     number of atomic types    =            4
     number of electrons       =        72.00
     number of Kohn-Sham states=          100
     kinetic-energy cutoff     =      30.0000  Ry
     charge density cutoff     =     300.0000  Ry
     convergence threshold     =      1.0E-04
     mixing beta               =       0.3000
     number of iterations used =            8  plain     mixing
     Exchange-correlation      = PBE ( 1  4  3  4 0 0)

     celldm(1)=  13.351425  celldm(2)=   0.000000  celldm(3)=   0.000000
     celldm(4)=   0.000000  celldm(5)=   0.000000  celldm(6)=   0.000000

     crystal axes: (cart. coord. in units of alat)
               a(1) = (   1.000000   0.000000   0.000000 )  
               a(2) = (   0.000000   1.000000   0.000000 )  
               a(3) = (   0.000000   0.000000   1.000000 )  

     reciprocal axes: (cart. coord. in units 2 pi/alat)
               b(1) = (  1.000000  0.000000  0.000000 )  
               b(2) = (  0.000000  1.000000  0.000000 )  
               b(3) = (  0.000000  0.000000  1.000000 )  


     PseudoPot. # 1 for C  read from file:
     /util/academic/espresso/6.2.1/pseudopotentials/upf_files/C.pbe-n-rrkjus_psl.0.1.UPF
     MD5 check sum: ab446d787031eba755f1d5ee46644bb0
     Pseudo is Ultrasoft + core correction, Zval =  4.0
     Generated using "atomic" code by A. Dal Corso v.5.0.2 svn rev. 9415
     Using radial grid of 1073 points,  4 beta functions with: 
                l(1) =   0
                l(2) =   0
                l(3) =   1
                l(4) =   1
     Q(r) pseudized with 0 coefficients 


     PseudoPot. # 2 for H  read from file:
     /util/academic/espresso/6.2.1/pseudopotentials/upf_files/H.pbe-rrkjus_psl.0.1.UPF
     MD5 check sum: bd57da0722753ddfd9833a65b40bb853
     Pseudo is Ultrasoft, Zval =  1.0
     Generated using "atomic" code by A. Dal Corso v.5.0.2 svn rev. 9415
     Using radial grid of  929 points,  2 beta functions with: 
                l(1) =   0
                l(2) =   0
     Q(r) pseudized with 0 coefficients 


     PseudoPot. # 3 for Ir read from file:
     /util/academic/espresso/6.2.1/pseudopotentials/upf_files/Ir.pbe-n-rrkjus_psl.0.2.3.UPF
     MD5 check sum: 0d5bc36db6a0bde07ee800c0d8fcbb77
     Pseudo is Ultrasoft + core correction, Zval =  9.0
     Generated using "atomic" code by A. Dal Corso v.5.0.2 svn rev. 9415
     Using radial grid of 1277 points,  6 beta functions with: 
                l(1) =   0
                l(2) =   0
                l(3) =   1
                l(4) =   1
                l(5) =   2
                l(6) =   2
     Q(r) pseudized with 0 coefficients 


     PseudoPot. # 4 for N  read from file:
     /util/academic/espresso/6.2.1/pseudopotentials/upf_files/N.pbe-n-rrkjus_psl.0.1.UPF
     MD5 check sum: ed8b6a90f28a53b7d71920e7015d2dd6
     Pseudo is Ultrasoft + core correction, Zval =  5.0
     Generated using "atomic" code by A. Dal Corso v.5.0.2 svn rev. 9415
     Using radial grid of 1085 points,  4 beta functions with: 
                l(1) =   0
                l(2) =   0
                l(3) =   1
                l(4) =   1
     Q(r) pseudized with 0 coefficients 


     atomic species   valence    mass     pseudopotential
        C              4.00    12.01000     C ( 1.00)
        H              1.00     1.00700     H ( 1.00)
        Ir             9.00   192.21700     Ir( 1.00)
        N              5.00    14.00600     N ( 1.00)

     No symmetry found



   Cartesian axes

     site n.     atom                  positions (alat units)
         1           Ir  tau(   1) = (   0.0001033   0.0009576  -0.0010347  )
         2           N   tau(   2) = (   0.1343302  -0.2199985  -0.1619053  )
         3           N   tau(   3) = (  -0.2549454  -0.0067890  -0.1595461  )
         4           N   tau(   4) = (   0.1317587   0.2212064  -0.1616625  )
         5           C   tau(   5) = (  -0.0696515   0.2233901   0.1536849  )
         6           C   tau(   6) = (   0.2208836  -0.0531399   0.1532292  )
         7           C   tau(   7) = (   0.2878579  -0.2781794  -0.0791834  )
         8           C   tau(   8) = (   0.3281454  -0.1831139   0.0870527  )
         9           C   tau(   9) = (  -0.1596214  -0.1698053   0.1550727  )
        10           C   tau(  10) = (   0.0925807   0.3883640  -0.0885917  )
        11           C   tau(  11) = (  -0.0077033   0.4000634   0.0878926  )
        12           C   tau(  12) = (  -0.3832935  -0.1148570  -0.0888408  )
        13           C   tau(  13) = (  -0.3289234  -0.2163487   0.0843722  )
        14           H   tau(  14) = (   0.2561935   0.0244401   0.2850626  )
        15           H   tau(  15) = (   0.4501596  -0.2286213   0.1838658  )
        16           H   tau(  16) = (   0.3877043  -0.3839018  -0.1271693  )
        17           H   tau(  17) = (   0.1329308   0.5078375  -0.1689277  )
        18           H   tau(  18) = (  -0.0338743   0.5336990   0.1623844  )
        19           H   tau(  19) = (  -0.1631317   0.2174951   0.2802636  )
        20           H   tau(  20) = (  -0.3107880  -0.3927591   0.1442020  )
        21           H   tau(  21) = (  -0.1142015  -0.2221363   0.2959939  )
        22           H   tau(  22) = (  -0.5020992  -0.1260454  -0.1873115  )
        23           H   tau(  23) = (   0.0903640  -0.3045497  -0.2711332  )
        24           H   tau(  24) = (   0.1740607   0.2336806  -0.3025270  )
        25           H   tau(  25) = (  -0.3067777   0.0789502  -0.2683487  )

     number of k points=     1  gaussian smearing, width (Ry)=  0.0100
                       cart. coord. in units 2pi/alat
        k(    1) = (   0.0000000   0.0000000   0.0000000), wk =   2.0000000

     Dense  grid:   104401 G-vectors     FFT dimensions: (  75,  75,  75)

     Smooth grid:    26318 G-vectors     FFT dimensions: (  48,  48,  48)

     Estimated max dynamical RAM per process >      46.16 MB

     Estimated total dynamical RAM >     553.92 MB

     Check: negative/imaginary core charge=   -0.000002    0.000000

     Initial potential from superposition of free atoms

     starting charge   71.99934, renormalised to   72.00000
     Starting wfc are   69 randomized atomic wfcs +   31 random wfc

     total cpu time spent up to now is        2.2 secs

     Self-consistent Calculation

     iteration #  1     ecut=    30.00 Ry     beta= 0.30
     Davidson diagonalization with overlap
     ethr =  1.00E-02,  avg # of iterations =  5.0

     total cpu time spent up to now is        2.6 secs

     total energy              =    -243.46548905 Ry
     Harris-Foulkes estimate   =    -244.75024802 Ry
     estimated scf accuracy    <       3.36012359 Ry

     iteration #  2     ecut=    30.00 Ry     beta= 0.30
     Davidson diagonalization with overlap
     ethr =  4.67E-03,  avg # of iterations =  1.0

     total cpu time spent up to now is        2.8 secs

     total energy              =    -243.56187971 Ry
     Harris-Foulkes estimate   =    -243.85164867 Ry
     estimated scf accuracy    <       0.81019705 Ry

     iteration #  3     ecut=    30.00 Ry     beta= 0.30
     Davidson diagonalization with overlap
     ethr =  1.13E-03,  avg # of iterations =  4.0

     total cpu time spent up to now is        3.1 secs

     total energy              =    -243.59508449 Ry
     Harris-Foulkes estimate   =    -243.70028510 Ry
     estimated scf accuracy    <       0.35096727 Ry

     iteration #  4     ecut=    30.00 Ry     beta= 0.30
     Davidson diagonalization with overlap
     ethr =  4.87E-04,  avg # of iterations =  2.0

     total cpu time spent up to now is        3.3 secs

     total energy              =    -243.61959547 Ry
     Harris-Foulkes estimate   =    -243.63931360 Ry
     estimated scf accuracy    <       0.05924391 Ry

     iteration #  5     ecut=    30.00 Ry     beta= 0.30
     Davidson diagonalization with overlap
     ethr =  8.23E-05,  avg # of iterations =  5.0

     total cpu time spent up to now is        3.6 secs

     total energy              =    -243.62966959 Ry
     Harris-Foulkes estimate   =    -243.63042187 Ry
     estimated scf accuracy    <       0.00483613 Ry

     iteration #  6     ecut=    30.00 Ry     beta= 0.30
     Davidson diagonalization with overlap
     ethr =  6.72E-06,  avg # of iterations =  2.0

     total cpu time spent up to now is        3.8 secs

     total energy              =    -243.63002583 Ry
     Harris-Foulkes estimate   =    -243.63014071 Ry
     estimated scf accuracy    <       0.00093594 Ry

     iteration #  7     ecut=    30.00 Ry     beta= 0.30
     Davidson diagonalization with overlap
     ethr =  1.30E-06,  avg # of iterations =  1.0

     total cpu time spent up to now is        4.0 secs

     End of self-consistent calculation

          k = 0.0000 0.0000 0.0000 (  3310 PWs)   bands (ev):

   -18.8029 -18.4239 -17.9102 -14.6822 -14.0534 -13.7970 -11.8042 -10.8714
   -10.5965  -9.1995  -8.5297  -8.3768  -8.2163  -7.7418  -7.4506  -6.4541
    -5.9963  -5.7332  -5.6598  -5.0945  -5.0239  -4.7023  -4.3777  -4.2018
    -4.1673  -3.6964  -3.2713  -2.4698  -2.2348  -2.0804  -1.5482  -1.4492
    -0.9404  -0.2166  -0.1605   0.5533   1.8948   2.5969   2.9572   3.2059
     4.3612   5.1275   5.3005   5.5370   5.5926   5.7986   5.9388   6.0171
     6.5905   6.7799   6.9702   7.1624   7.7370   7.8315   8.2806   8.3485
     8.5361   8.9860   9.1084   9.1823   9.3752   9.4967   9.9246  10.3472
    10.5752  10.9395  11.1476  11.2489  11.4291  11.6918  11.7983  12.1741
    12.2735  12.5881  12.7770  12.8805  13.1823  13.3033  13.5071  13.7414
    14.0302  14.2449  14.4577  14.6025  14.7327  14.7612  14.9651  15.0490
    15.2059  15.3003  15.5260  15.6896  15.8247  16.0379  16.4010  16.4497
    16.5113  16.6910  16.8933  17.0411

     the Fermi energy is     1.2512 ev

!    total energy              =    -243.63019083 Ry
     Harris-Foulkes estimate   =    -243.63011483 Ry
     estimated scf accuracy    <       0.00007040 Ry

     The total energy is the sum of the following terms:

     one-electron contribution =    -347.99572838 Ry
     hartree contribution      =     198.21222412 Ry
     xc contribution           =     -93.40149720 Ry
     ewald contribution        =      -0.44518937 Ry
     smearing contrib. (-TS)   =      -0.00000000 Ry

     convergence has been achieved in   7 iterations

     Writing output data file x0.save
 
     init_run     :      0.34s CPU      0.37s WALL (       1 calls)
     electrons    :      1.74s CPU      1.83s WALL (       1 calls)

     Called by init_run:
     wfcinit      :      0.03s CPU      0.03s WALL (       1 calls)
     potinit      :      0.07s CPU      0.07s WALL (       1 calls)

     Called by electrons:
     c_bands      :      0.85s CPU      0.88s WALL (       7 calls)
     sum_band     :      0.41s CPU      0.42s WALL (       7 calls)
     v_of_rho     :      0.22s CPU      0.22s WALL (       8 calls)
     newd         :      0.27s CPU      0.28s WALL (       8 calls)
     mix_rho      :      0.03s CPU      0.03s WALL (       7 calls)

     Called by c_bands:
     init_us_2    :      0.00s CPU      0.00s WALL (      15 calls)
     regterg      :      0.84s CPU      0.86s WALL (       7 calls)

     Called by sum_band:
     sum_band:bec :      0.00s CPU      0.00s WALL (       7 calls)
     addusdens    :      0.28s CPU      0.28s WALL (       7 calls)

     Called by *egterg:
     h_psi        :      0.43s CPU      0.45s WALL (      28 calls)
     s_psi        :      0.01s CPU      0.01s WALL (      28 calls)
     g_psi        :      0.00s CPU      0.00s WALL (      20 calls)
     rdiaghg      :      0.32s CPU      0.33s WALL (      27 calls)

     Called by h_psi:
     h_psi:pot    :      0.43s CPU      0.45s WALL (      28 calls)
     h_psi:calbec :      0.02s CPU      0.02s WALL (      28 calls)
     vloc_psi     :      0.40s CPU      0.42s WALL (      28 calls)
     add_vuspsi   :      0.01s CPU      0.01s WALL (      28 calls)

     General routines
     calbec       :      0.02s CPU      0.02s WALL (      35 calls)
     fft          :      0.28s CPU      0.29s WALL (     124 calls)
     ffts         :      0.01s CPU      0.01s WALL (      15 calls)
     fftw         :      0.42s CPU      0.44s WALL (    2178 calls)
     interpolate  :      0.03s CPU      0.04s WALL (      15 calls)
 
     Parallel routines
     fft_scatt_xy :      0.04s CPU      0.04s WALL (    2317 calls)
     fft_scatt_yz :      0.20s CPU      0.21s WALL (    2317 calls)
 
     PWSCF        :     3.74s CPU         4.74s WALL

 
   This run was terminated on:  18:53:51  22Jun2021            

=------------------------------------------------------------------------------=
   JOB DONE.
=------------------------------------------------------------------------------=
