
     Program PWSCF v.6.2 (svn rev. 14038) starts on 22Jun2021 at 18:52:33 

     This program is part of the open-source Quantum ESPRESSO suite
     for quantum simulation of materials; please cite
         "P. Giannozzi et al., J. Phys.:Condens. Matter 21 395502 (2009);
         "P. Giannozzi et al., J. Phys.:Condens. Matter 29 465901 (2017);
          URL http://www.quantum-espresso.org", 
     in publications or presentations arising from this work. More details at
     http://www.quantum-espresso.org/quote

     Parallel version (MPI), running on    12 processors

     MPI processes distributed on     1 nodes
     R & G space division:  proc/nbgrp/npool/nimage =      12
     Waiting for input...
     Reading input from standard input

     Current dimensions of program PWSCF are:
     Max number of different atomic species (ntypx) = 10
     Max number of k-points (npk) =  40000
     Max angular momentum in pseudopotentials (lmaxx) =  3
               file Ir.pbe-n-rrkjus_psl.0.2.3.UPF: wavefunction(s)  5D renormalized

     gamma-point specific algorithms are used

     Subspace diagonalization in iterative solution of the eigenvalue problem:
     a serial algorithm will be used

 
     Parallelization info
     --------------------
     sticks:   dense  smooth     PW     G-vecs:    dense   smooth      PW
     Min         353     140     34                17398     4383     546
     Max         356     144     36                17404     4390     556
     Sum        4257    1701    421               208801    52635    6619
 


     bravais-lattice index     =            0
     lattice parameter (alat)  =      13.3514  a.u.
     unit-cell volume          =    2380.0325 (a.u.)^3
     number of atoms/cell      =           25
     number of atomic types    =            4
     number of electrons       =        72.00
     number of Kohn-Sham states=          100
     kinetic-energy cutoff     =      30.0000  Ry
     charge density cutoff     =     300.0000  Ry
     convergence threshold     =      1.0E-04
     mixing beta               =       0.3000
     number of iterations used =            8  plain     mixing
     Exchange-correlation      = PBE ( 1  4  3  4 0 0)

     celldm(1)=  13.351425  celldm(2)=   0.000000  celldm(3)=   0.000000
     celldm(4)=   0.000000  celldm(5)=   0.000000  celldm(6)=   0.000000

     crystal axes: (cart. coord. in units of alat)
               a(1) = (   1.000000   0.000000   0.000000 )  
               a(2) = (   0.000000   1.000000   0.000000 )  
               a(3) = (   0.000000   0.000000   1.000000 )  

     reciprocal axes: (cart. coord. in units 2 pi/alat)
               b(1) = (  1.000000  0.000000  0.000000 )  
               b(2) = (  0.000000  1.000000  0.000000 )  
               b(3) = (  0.000000  0.000000  1.000000 )  


     PseudoPot. # 1 for C  read from file:
     /util/academic/espresso/6.2.1/pseudopotentials/upf_files/C.pbe-n-rrkjus_psl.0.1.UPF
     MD5 check sum: ab446d787031eba755f1d5ee46644bb0
     Pseudo is Ultrasoft + core correction, Zval =  4.0
     Generated using "atomic" code by A. Dal Corso v.5.0.2 svn rev. 9415
     Using radial grid of 1073 points,  4 beta functions with: 
                l(1) =   0
                l(2) =   0
                l(3) =   1
                l(4) =   1
     Q(r) pseudized with 0 coefficients 


     PseudoPot. # 2 for H  read from file:
     /util/academic/espresso/6.2.1/pseudopotentials/upf_files/H.pbe-rrkjus_psl.0.1.UPF
     MD5 check sum: bd57da0722753ddfd9833a65b40bb853
     Pseudo is Ultrasoft, Zval =  1.0
     Generated using "atomic" code by A. Dal Corso v.5.0.2 svn rev. 9415
     Using radial grid of  929 points,  2 beta functions with: 
                l(1) =   0
                l(2) =   0
     Q(r) pseudized with 0 coefficients 


     PseudoPot. # 3 for Ir read from file:
     /util/academic/espresso/6.2.1/pseudopotentials/upf_files/Ir.pbe-n-rrkjus_psl.0.2.3.UPF
     MD5 check sum: 0d5bc36db6a0bde07ee800c0d8fcbb77
     Pseudo is Ultrasoft + core correction, Zval =  9.0
     Generated using "atomic" code by A. Dal Corso v.5.0.2 svn rev. 9415
     Using radial grid of 1277 points,  6 beta functions with: 
                l(1) =   0
                l(2) =   0
                l(3) =   1
                l(4) =   1
                l(5) =   2
                l(6) =   2
     Q(r) pseudized with 0 coefficients 


     PseudoPot. # 4 for N  read from file:
     /util/academic/espresso/6.2.1/pseudopotentials/upf_files/N.pbe-n-rrkjus_psl.0.1.UPF
     MD5 check sum: ed8b6a90f28a53b7d71920e7015d2dd6
     Pseudo is Ultrasoft + core correction, Zval =  5.0
     Generated using "atomic" code by A. Dal Corso v.5.0.2 svn rev. 9415
     Using radial grid of 1085 points,  4 beta functions with: 
                l(1) =   0
                l(2) =   0
                l(3) =   1
                l(4) =   1
     Q(r) pseudized with 0 coefficients 


     atomic species   valence    mass     pseudopotential
        C              4.00    12.01000     C ( 1.00)
        H              1.00     1.00700     H ( 1.00)
        Ir             9.00   192.21700     Ir( 1.00)
        N              5.00    14.00600     N ( 1.00)

     No symmetry found



   Cartesian axes

     site n.     atom                  positions (alat units)
         1           Ir  tau(   1) = (  -0.0002233   0.0002599  -0.0010900  )
         2           N   tau(   2) = (   0.1357543  -0.2174002  -0.1600565  )
         3           N   tau(   3) = (  -0.2549937  -0.0097333  -0.1585687  )
         4           N   tau(   4) = (   0.1235234   0.2239172  -0.1604142  )
         5           C   tau(   5) = (  -0.0682825   0.2244971   0.1522445  )
         6           C   tau(   6) = (   0.2278128  -0.0551069   0.1520678  )
         7           C   tau(   7) = (   0.2911001  -0.2757701  -0.0823350  )
         8           C   tau(   8) = (   0.3457597  -0.1892692   0.0869424  )
         9           C   tau(   9) = (  -0.1616881  -0.1725616   0.1531853  )
        10           C   tau(  10) = (   0.0938895   0.3900970  -0.0875928  )
        11           C   tau(  11) = (  -0.0045814   0.4004088   0.0860497  )
        12           C   tau(  12) = (  -0.3851102  -0.1138383  -0.0863212  )
        13           C   tau(  13) = (  -0.3396658  -0.2091357   0.0857470  )
        14           H   tau(  14) = (   0.2611667   0.0185836   0.2830930  )
        15           H   tau(  15) = (   0.4523256  -0.2204705   0.1630339  )
        16           H   tau(  16) = (   0.3846699  -0.3875587  -0.1439928  )
        17           H   tau(  17) = (   0.1439000   0.5186367  -0.1553979  )
        18           H   tau(  18) = (  -0.0361060   0.5346795   0.1588805  )
        19           H   tau(  19) = (  -0.1559378   0.2213457   0.2847685  )
        20           H   tau(  20) = (  -0.3946187  -0.3261560   0.1581321  )
        21           H   tau(  21) = (  -0.1160739  -0.2303282   0.2899973  )
        22           H   tau(  22) = (  -0.5162534  -0.1305141  -0.1624659  )
        23           H   tau(  23) = (   0.0812754  -0.2876102  -0.2756001  )
        24           H   tau(  24) = (   0.1848796   0.2285477  -0.2904903  )
        25           H   tau(  25) = (  -0.2970755   0.0640645  -0.2736687  )

     number of k points=     1  gaussian smearing, width (Ry)=  0.0100
                       cart. coord. in units 2pi/alat
        k(    1) = (   0.0000000   0.0000000   0.0000000), wk =   2.0000000

     Dense  grid:   104401 G-vectors     FFT dimensions: (  75,  75,  75)

     Smooth grid:    26318 G-vectors     FFT dimensions: (  48,  48,  48)

     Estimated max dynamical RAM per process >      46.16 MB

     Estimated total dynamical RAM >     553.92 MB

     Check: negative/imaginary core charge=   -0.000002    0.000000

     Initial potential from superposition of free atoms

     starting charge   71.99934, renormalised to   72.00000
     Starting wfc are   69 randomized atomic wfcs +   31 random wfc

     total cpu time spent up to now is        3.2 secs

     Self-consistent Calculation

     iteration #  1     ecut=    30.00 Ry     beta= 0.30
     Davidson diagonalization with overlap
     ethr =  1.00E-02,  avg # of iterations =  5.0

     total cpu time spent up to now is        3.6 secs

     total energy              =    -243.47616252 Ry
     Harris-Foulkes estimate   =    -244.83717428 Ry
     estimated scf accuracy    <       3.55795876 Ry

     iteration #  2     ecut=    30.00 Ry     beta= 0.30
     Davidson diagonalization with overlap
     ethr =  4.94E-03,  avg # of iterations =  1.0

     total cpu time spent up to now is        3.8 secs

     total energy              =    -243.58214191 Ry
     Harris-Foulkes estimate   =    -243.92284478 Ry
     estimated scf accuracy    <       0.97448919 Ry

     iteration #  3     ecut=    30.00 Ry     beta= 0.30
     Davidson diagonalization with overlap
     ethr =  1.35E-03,  avg # of iterations =  4.0

     total cpu time spent up to now is        4.0 secs

     total energy              =    -243.62159549 Ry
     Harris-Foulkes estimate   =    -243.73763314 Ry
     estimated scf accuracy    <       0.36099980 Ry

     iteration #  4     ecut=    30.00 Ry     beta= 0.30
     Davidson diagonalization with overlap
     ethr =  5.01E-04,  avg # of iterations =  3.0

     negative rho (up, down):  2.770E-08 0.000E+00

     total cpu time spent up to now is        4.3 secs

     total energy              =    -243.64731847 Ry
     Harris-Foulkes estimate   =    -243.66517672 Ry
     estimated scf accuracy    <       0.05423131 Ry

     iteration #  5     ecut=    30.00 Ry     beta= 0.30
     Davidson diagonalization with overlap
     ethr =  7.53E-05,  avg # of iterations =  6.0

     negative rho (up, down):  1.009E-08 0.000E+00

     total cpu time spent up to now is        4.6 secs

     total energy              =    -243.65618724 Ry
     Harris-Foulkes estimate   =    -243.65710199 Ry
     estimated scf accuracy    <       0.00539987 Ry

     iteration #  6     ecut=    30.00 Ry     beta= 0.30
     Davidson diagonalization with overlap
     ethr =  7.50E-06,  avg # of iterations =  2.0

     total cpu time spent up to now is        4.8 secs

     total energy              =    -243.65668380 Ry
     Harris-Foulkes estimate   =    -243.65677726 Ry
     estimated scf accuracy    <       0.00092566 Ry

     iteration #  7     ecut=    30.00 Ry     beta= 0.30
     Davidson diagonalization with overlap
     ethr =  1.29E-06,  avg # of iterations =  5.0

     total cpu time spent up to now is        5.1 secs

     total energy              =    -243.65678555 Ry
     Harris-Foulkes estimate   =    -243.65675984 Ry
     estimated scf accuracy    <       0.00010590 Ry

     iteration #  8     ecut=    30.00 Ry     beta= 0.30
     Davidson diagonalization with overlap
     ethr =  1.47E-07,  avg # of iterations =  2.0

     total cpu time spent up to now is        5.3 secs

     End of self-consistent calculation

          k = 0.0000 0.0000 0.0000 (  3310 PWs)   bands (ev):

   -18.8640 -18.4317 -18.0657 -15.2467 -13.9380 -13.7441 -11.8557 -10.8312
   -10.7381 -10.0908  -8.8964  -8.5104  -8.2471  -7.8398  -7.5346  -7.0368
    -6.1000  -5.8383  -5.6522  -5.1740  -4.8660  -4.7608  -4.3465  -4.3047
    -4.1356  -3.7690  -3.1440  -2.4857  -2.0643  -1.9417  -1.6087  -1.4293
    -1.2322  -0.3344  -0.1142   0.3325   1.9341   2.6292   3.0044   3.2674
     5.1106   5.1939   5.2672   5.5051   5.7550   5.8751   5.9414   6.0500
     6.5906   6.7273   6.9898   7.3581   7.8762   8.0602   8.3833   8.6104
     8.7179   9.0071   9.2760   9.3304   9.5614   9.8625  10.0253  10.4922
    10.7069  11.0120  11.1972  11.3367  11.5611  11.6914  12.0490  12.2584
    12.5143  12.6705  12.7852  12.8109  13.1667  13.3289  13.5710  13.8385
    14.1166  14.2465  14.3825  14.5569  14.7783  14.8934  15.0302  15.0971
    15.2830  15.3316  15.5793  15.7534  15.9011  16.2342  16.4458  16.5674
    16.7025  16.7979  16.9982  17.1215

     the Fermi energy is     1.1265 ev

!    total energy              =    -243.65685196 Ry
     Harris-Foulkes estimate   =    -243.65680558 Ry
     estimated scf accuracy    <       0.00002015 Ry

     The total energy is the sum of the following terms:

     one-electron contribution =    -355.04310315 Ry
     hartree contribution      =     201.73462016 Ry
     xc contribution           =     -93.74641143 Ry
     ewald contribution        =       3.39804246 Ry
     smearing contrib. (-TS)   =      -0.00000000 Ry

     convergence has been achieved in   8 iterations

     Writing output data file x0.save
 
     init_run     :      0.39s CPU      0.43s WALL (       1 calls)
     electrons    :      2.04s CPU      2.14s WALL (       1 calls)

     Called by init_run:
     wfcinit      :      0.03s CPU      0.04s WALL (       1 calls)
     potinit      :      0.07s CPU      0.08s WALL (       1 calls)

     Called by electrons:
     c_bands      :      1.03s CPU      1.06s WALL (       8 calls)
     sum_band     :      0.47s CPU      0.48s WALL (       8 calls)
     v_of_rho     :      0.24s CPU      0.25s WALL (       9 calls)
     newd         :      0.30s CPU      0.31s WALL (       9 calls)
     mix_rho      :      0.03s CPU      0.03s WALL (       8 calls)

     Called by c_bands:
     init_us_2    :      0.00s CPU      0.00s WALL (      17 calls)
     regterg      :      1.02s CPU      1.05s WALL (       8 calls)

     Called by sum_band:
     sum_band:bec :      0.00s CPU      0.00s WALL (       8 calls)
     addusdens    :      0.32s CPU      0.33s WALL (       8 calls)

     Called by *egterg:
     h_psi        :      0.50s CPU      0.51s WALL (      37 calls)
     s_psi        :      0.01s CPU      0.01s WALL (      37 calls)
     g_psi        :      0.00s CPU      0.00s WALL (      28 calls)
     rdiaghg      :      0.43s CPU      0.44s WALL (      36 calls)

     Called by h_psi:
     h_psi:pot    :      0.49s CPU      0.51s WALL (      37 calls)
     h_psi:calbec :      0.02s CPU      0.02s WALL (      37 calls)
     vloc_psi     :      0.46s CPU      0.48s WALL (      37 calls)
     add_vuspsi   :      0.01s CPU      0.01s WALL (      37 calls)

     General routines
     calbec       :      0.02s CPU      0.03s WALL (      45 calls)
     fft          :      0.33s CPU      0.34s WALL (     140 calls)
     ffts         :      0.01s CPU      0.01s WALL (      17 calls)
     fftw         :      0.50s CPU      0.51s WALL (    2478 calls)
     interpolate  :      0.04s CPU      0.04s WALL (      17 calls)
 
     Parallel routines
     fft_scatt_xy :      0.04s CPU      0.04s WALL (    2635 calls)
     fft_scatt_yz :      0.25s CPU      0.25s WALL (    2635 calls)
 
     PWSCF        :     4.04s CPU         5.75s WALL

 
   This run was terminated on:  18:52:39  22Jun2021            

=------------------------------------------------------------------------------=
   JOB DONE.
=------------------------------------------------------------------------------=
