
     Program PWSCF v.6.2 (svn rev. 14038) starts on 22Jun2021 at 18:56:37 

     This program is part of the open-source Quantum ESPRESSO suite
     for quantum simulation of materials; please cite
         "P. Giannozzi et al., J. Phys.:Condens. Matter 21 395502 (2009);
         "P. Giannozzi et al., J. Phys.:Condens. Matter 29 465901 (2017);
          URL http://www.quantum-espresso.org", 
     in publications or presentations arising from this work. More details at
     http://www.quantum-espresso.org/quote

     Parallel version (MPI), running on    12 processors

     MPI processes distributed on     1 nodes
     R & G space division:  proc/nbgrp/npool/nimage =      12
     Waiting for input...
     Reading input from standard input

     Current dimensions of program PWSCF are:
     Max number of different atomic species (ntypx) = 10
     Max number of k-points (npk) =  40000
     Max angular momentum in pseudopotentials (lmaxx) =  3
               file Ir.pbe-n-rrkjus_psl.0.2.3.UPF: wavefunction(s)  5D renormalized

     gamma-point specific algorithms are used

     Subspace diagonalization in iterative solution of the eigenvalue problem:
     a serial algorithm will be used

 
     Parallelization info
     --------------------
     sticks:   dense  smooth     PW     G-vecs:    dense   smooth      PW
     Min         353     140     34                17398     4383     546
     Max         356     144     36                17404     4390     556
     Sum        4257    1701    421               208801    52635    6619
 


     bravais-lattice index     =            0
     lattice parameter (alat)  =      13.3514  a.u.
     unit-cell volume          =    2380.0325 (a.u.)^3
     number of atoms/cell      =           25
     number of atomic types    =            4
     number of electrons       =        72.00
     number of Kohn-Sham states=          100
     kinetic-energy cutoff     =      30.0000  Ry
     charge density cutoff     =     300.0000  Ry
     convergence threshold     =      1.0E-04
     mixing beta               =       0.3000
     number of iterations used =            8  plain     mixing
     Exchange-correlation      = PBE ( 1  4  3  4 0 0)

     celldm(1)=  13.351425  celldm(2)=   0.000000  celldm(3)=   0.000000
     celldm(4)=   0.000000  celldm(5)=   0.000000  celldm(6)=   0.000000

     crystal axes: (cart. coord. in units of alat)
               a(1) = (   1.000000   0.000000   0.000000 )  
               a(2) = (   0.000000   1.000000   0.000000 )  
               a(3) = (   0.000000   0.000000   1.000000 )  

     reciprocal axes: (cart. coord. in units 2 pi/alat)
               b(1) = (  1.000000  0.000000  0.000000 )  
               b(2) = (  0.000000  1.000000  0.000000 )  
               b(3) = (  0.000000  0.000000  1.000000 )  


     PseudoPot. # 1 for C  read from file:
     /util/academic/espresso/6.2.1/pseudopotentials/upf_files/C.pbe-n-rrkjus_psl.0.1.UPF
     MD5 check sum: ab446d787031eba755f1d5ee46644bb0
     Pseudo is Ultrasoft + core correction, Zval =  4.0
     Generated using "atomic" code by A. Dal Corso v.5.0.2 svn rev. 9415
     Using radial grid of 1073 points,  4 beta functions with: 
                l(1) =   0
                l(2) =   0
                l(3) =   1
                l(4) =   1
     Q(r) pseudized with 0 coefficients 


     PseudoPot. # 2 for H  read from file:
     /util/academic/espresso/6.2.1/pseudopotentials/upf_files/H.pbe-rrkjus_psl.0.1.UPF
     MD5 check sum: bd57da0722753ddfd9833a65b40bb853
     Pseudo is Ultrasoft, Zval =  1.0
     Generated using "atomic" code by A. Dal Corso v.5.0.2 svn rev. 9415
     Using radial grid of  929 points,  2 beta functions with: 
                l(1) =   0
                l(2) =   0
     Q(r) pseudized with 0 coefficients 


     PseudoPot. # 3 for Ir read from file:
     /util/academic/espresso/6.2.1/pseudopotentials/upf_files/Ir.pbe-n-rrkjus_psl.0.2.3.UPF
     MD5 check sum: 0d5bc36db6a0bde07ee800c0d8fcbb77
     Pseudo is Ultrasoft + core correction, Zval =  9.0
     Generated using "atomic" code by A. Dal Corso v.5.0.2 svn rev. 9415
     Using radial grid of 1277 points,  6 beta functions with: 
                l(1) =   0
                l(2) =   0
                l(3) =   1
                l(4) =   1
                l(5) =   2
                l(6) =   2
     Q(r) pseudized with 0 coefficients 


     PseudoPot. # 4 for N  read from file:
     /util/academic/espresso/6.2.1/pseudopotentials/upf_files/N.pbe-n-rrkjus_psl.0.1.UPF
     MD5 check sum: ed8b6a90f28a53b7d71920e7015d2dd6
     Pseudo is Ultrasoft + core correction, Zval =  5.0
     Generated using "atomic" code by A. Dal Corso v.5.0.2 svn rev. 9415
     Using radial grid of 1085 points,  4 beta functions with: 
                l(1) =   0
                l(2) =   0
                l(3) =   1
                l(4) =   1
     Q(r) pseudized with 0 coefficients 


     atomic species   valence    mass     pseudopotential
        C              4.00    12.01000     C ( 1.00)
        H              1.00     1.00700     H ( 1.00)
        Ir             9.00   192.21700     Ir( 1.00)
        N              5.00    14.00600     N ( 1.00)

     No symmetry found



   Cartesian axes

     site n.     atom                  positions (alat units)
         1           Ir  tau(   1) = (   0.0003590   0.0037682   0.0011483  )
         2           N   tau(   2) = (   0.1579478  -0.1891818  -0.1613961  )
         3           N   tau(   3) = (  -0.2401141   0.0017495  -0.1671878  )
         4           N   tau(   4) = (   0.1105064   0.2109514  -0.1668954  )
         5           C   tau(   5) = (  -0.0782558   0.2288505   0.1520979  )
         6           C   tau(   6) = (   0.2110274  -0.0525233   0.1813181  )
         7           C   tau(   7) = (   0.2849953  -0.2750348  -0.0558563  )
         8           C   tau(   8) = (   0.3098202  -0.2127279   0.1296150  )
         9           C   tau(   9) = (  -0.1534207  -0.1756240   0.1358914  )
        10           C   tau(  10) = (   0.0725647   0.3806933  -0.0942560  )
        11           C   tau(  11) = (  -0.0120815   0.3938434   0.0838169  )
        12           C   tau(  12) = (  -0.3553877  -0.1309486  -0.1207480  )
        13           C   tau(  13) = (  -0.3142147  -0.2382740   0.0388039  )
        14           H   tau(  14) = (   0.2583809   0.0233507   0.3150618  )
        15           H   tau(  15) = (   0.4098684  -0.2708134   0.2301943  )
        16           H   tau(  16) = (   0.3723972  -0.3972441  -0.1036532  )
        17           H   tau(  17) = (   0.0769912   0.5065667  -0.2051258  )
        18           H   tau(  18) = (  -0.0217354   0.5398144   0.1531995  )
        19           H   tau(  19) = (  -0.1539078   0.2243177   0.2967324  )
        20           H   tau(  20) = (  -0.3975798  -0.3525113   0.0846849  )
        21           H   tau(  21) = (  -0.1228564  -0.2202184   0.2860571  )
        22           H   tau(  22) = (  -0.4615864  -0.1819374  -0.2247800  )
        23           H   tau(  23) = (   0.1190355  -0.2393839  -0.2867263  )
        24           H   tau(  24) = (   0.1414221   0.2243086  -0.3113111  )
        25           H   tau(  25) = (  -0.2662788   0.0722879  -0.2856520  )

     number of k points=     1  gaussian smearing, width (Ry)=  0.0100
                       cart. coord. in units 2pi/alat
        k(    1) = (   0.0000000   0.0000000   0.0000000), wk =   2.0000000

     Dense  grid:   104401 G-vectors     FFT dimensions: (  75,  75,  75)

     Smooth grid:    26318 G-vectors     FFT dimensions: (  48,  48,  48)

     Estimated max dynamical RAM per process >      46.16 MB

     Estimated total dynamical RAM >     553.92 MB

     Check: negative/imaginary core charge=   -0.000002    0.000000

     Initial potential from superposition of free atoms

     starting charge   71.99934, renormalised to   72.00000
     Starting wfc are   69 randomized atomic wfcs +   31 random wfc

     total cpu time spent up to now is        2.4 secs

     Self-consistent Calculation

     iteration #  1     ecut=    30.00 Ry     beta= 0.30
     Davidson diagonalization with overlap
     ethr =  1.00E-02,  avg # of iterations =  5.0

     total cpu time spent up to now is        2.8 secs

     total energy              =    -243.64453269 Ry
     Harris-Foulkes estimate   =    -244.94932050 Ry
     estimated scf accuracy    <       3.40308777 Ry

     iteration #  2     ecut=    30.00 Ry     beta= 0.30
     Davidson diagonalization with overlap
     ethr =  4.73E-03,  avg # of iterations =  1.0

     total cpu time spent up to now is        3.0 secs

     total energy              =    -243.76363624 Ry
     Harris-Foulkes estimate   =    -244.06239885 Ry
     estimated scf accuracy    <       0.84753451 Ry

     iteration #  3     ecut=    30.00 Ry     beta= 0.30
     Davidson diagonalization with overlap
     ethr =  1.18E-03,  avg # of iterations =  4.0

     total cpu time spent up to now is        3.3 secs

     total energy              =    -243.80351324 Ry
     Harris-Foulkes estimate   =    -243.90324787 Ry
     estimated scf accuracy    <       0.32465712 Ry

     iteration #  4     ecut=    30.00 Ry     beta= 0.30
     Davidson diagonalization with overlap
     ethr =  4.51E-04,  avg # of iterations =  4.0

     negative rho (up, down):  2.020E-07 0.000E+00

     total cpu time spent up to now is        3.5 secs

     total energy              =    -243.82310085 Ry
     Harris-Foulkes estimate   =    -243.84179059 Ry
     estimated scf accuracy    <       0.05504597 Ry

     iteration #  5     ecut=    30.00 Ry     beta= 0.30
     Davidson diagonalization with overlap
     ethr =  7.65E-05,  avg # of iterations =  6.0

     negative rho (up, down):  2.146E-07 0.000E+00

     total cpu time spent up to now is        3.8 secs

     total energy              =    -243.83156792 Ry
     Harris-Foulkes estimate   =    -243.83231734 Ry
     estimated scf accuracy    <       0.00454419 Ry

     iteration #  6     ecut=    30.00 Ry     beta= 0.30
     Davidson diagonalization with overlap
     ethr =  6.31E-06,  avg # of iterations =  2.0

     negative rho (up, down):  6.488E-08 0.000E+00

     total cpu time spent up to now is        4.1 secs

     total energy              =    -243.83199929 Ry
     Harris-Foulkes estimate   =    -243.83210650 Ry
     estimated scf accuracy    <       0.00090459 Ry

     iteration #  7     ecut=    30.00 Ry     beta= 0.30
     Davidson diagonalization with overlap
     ethr =  1.26E-06,  avg # of iterations =  3.0

     negative rho (up, down):  1.411E-08 0.000E+00

     total cpu time spent up to now is        4.3 secs

     total energy              =    -243.83208290 Ry
     Harris-Foulkes estimate   =    -243.83206894 Ry
     estimated scf accuracy    <       0.00015044 Ry

     iteration #  8     ecut=    30.00 Ry     beta= 0.30
     Davidson diagonalization with overlap
     ethr =  2.09E-07,  avg # of iterations =  2.0

     total cpu time spent up to now is        4.5 secs

     End of self-consistent calculation

          k = 0.0000 0.0000 0.0000 (  3310 PWs)   bands (ev):

   -18.4502 -18.2153 -17.9918 -14.3962 -14.1800 -13.8815 -11.5156 -10.6527
   -10.6085  -9.3242  -8.4198  -8.3249  -8.1113  -8.0123  -7.5472  -6.6284
    -5.8679  -5.8070  -5.5007  -5.2841  -5.0895  -4.8096  -4.4036  -4.2656
    -4.0069  -3.8336  -3.5094  -2.3759  -2.3046  -2.2242  -1.6786  -1.3919
    -1.3419  -0.4526  -0.3730   0.2221   1.9564   2.6073   3.0252   3.1317
     4.9038   5.1798   5.3534   5.5075   5.5994   5.6991   5.9441   6.2313
     6.6384   6.9083   6.9996   7.4984   7.7070   7.9536   8.2276   8.2796
     8.5237   8.5592   9.0567   9.1989   9.5235   9.9082  10.0857  10.4330
    10.7591  11.0046  11.1780  11.2539  11.5761  11.7337  11.9010  12.2835
    12.4794  12.6129  12.7172  12.8810  12.9848  13.1762  13.5110  13.9892
    14.0658  14.1959  14.3141  14.4773  14.5631  14.6997  14.8792  14.9914
    15.1497  15.3567  15.3864  15.6408  15.9552  16.0439  16.1815  16.3904
    16.5672  16.7819  16.9504  17.0723

     the Fermi energy is     1.0017 ev

!    total energy              =    -243.83214802 Ry
     Harris-Foulkes estimate   =    -243.83210766 Ry
     estimated scf accuracy    <       0.00001975 Ry

     The total energy is the sum of the following terms:

     one-electron contribution =    -344.14965108 Ry
     hartree contribution      =     196.19903159 Ry
     xc contribution           =     -93.36056476 Ry
     ewald contribution        =      -2.52096378 Ry
     smearing contrib. (-TS)   =      -0.00000000 Ry

     convergence has been achieved in   8 iterations

     Writing output data file x0.save
 
     init_run     :      0.36s CPU      0.41s WALL (       1 calls)
     electrons    :      2.06s CPU      2.15s WALL (       1 calls)

     Called by init_run:
     wfcinit      :      0.03s CPU      0.04s WALL (       1 calls)
     potinit      :      0.07s CPU      0.08s WALL (       1 calls)

     Called by electrons:
     c_bands      :      1.00s CPU      1.03s WALL (       8 calls)
     sum_band     :      0.49s CPU      0.50s WALL (       8 calls)
     v_of_rho     :      0.25s CPU      0.26s WALL (       9 calls)
     newd         :      0.31s CPU      0.33s WALL (       9 calls)
     mix_rho      :      0.03s CPU      0.03s WALL (       8 calls)

     Called by c_bands:
     init_us_2    :      0.01s CPU      0.01s WALL (      17 calls)
     regterg      :      0.99s CPU      1.01s WALL (       8 calls)

     Called by sum_band:
     sum_band:bec :      0.00s CPU      0.00s WALL (       8 calls)
     addusdens    :      0.34s CPU      0.35s WALL (       8 calls)

     Called by *egterg:
     h_psi        :      0.46s CPU      0.48s WALL (      36 calls)
     s_psi        :      0.01s CPU      0.01s WALL (      36 calls)
     g_psi        :      0.00s CPU      0.00s WALL (      27 calls)
     rdiaghg      :      0.41s CPU      0.41s WALL (      35 calls)

     Called by h_psi:
     h_psi:pot    :      0.46s CPU      0.48s WALL (      36 calls)
     h_psi:calbec :      0.02s CPU      0.02s WALL (      36 calls)
     vloc_psi     :      0.43s CPU      0.44s WALL (      36 calls)
     add_vuspsi   :      0.01s CPU      0.01s WALL (      36 calls)

     General routines
     calbec       :      0.03s CPU      0.03s WALL (      44 calls)
     fft          :      0.26s CPU      0.26s WALL (     140 calls)
     ffts         :      0.01s CPU      0.01s WALL (      17 calls)
     fftw         :      0.46s CPU      0.47s WALL (    2464 calls)
     interpolate  :      0.04s CPU      0.04s WALL (      17 calls)
 
     Parallel routines
     fft_scatt_xy :      0.04s CPU      0.04s WALL (    2621 calls)
     fft_scatt_yz :      0.14s CPU      0.14s WALL (    2621 calls)
 
     PWSCF        :     4.06s CPU         5.02s WALL

 
   This run was terminated on:  18:56:42  22Jun2021            

=------------------------------------------------------------------------------=
   JOB DONE.
=------------------------------------------------------------------------------=
