
     Program PWSCF v.6.2 (svn rev. 14038) starts on 22Jun2021 at 18:52: 3 

     This program is part of the open-source Quantum ESPRESSO suite
     for quantum simulation of materials; please cite
         "P. Giannozzi et al., J. Phys.:Condens. Matter 21 395502 (2009);
         "P. Giannozzi et al., J. Phys.:Condens. Matter 29 465901 (2017);
          URL http://www.quantum-espresso.org", 
     in publications or presentations arising from this work. More details at
     http://www.quantum-espresso.org/quote

     Parallel version (MPI), running on    12 processors

     MPI processes distributed on     1 nodes
     R & G space division:  proc/nbgrp/npool/nimage =      12
     Waiting for input...
     Reading input from standard input

     Current dimensions of program PWSCF are:
     Max number of different atomic species (ntypx) = 10
     Max number of k-points (npk) =  40000
     Max angular momentum in pseudopotentials (lmaxx) =  3
               file Ir.pbe-n-rrkjus_psl.0.2.3.UPF: wavefunction(s)  5D renormalized

     gamma-point specific algorithms are used

     Subspace diagonalization in iterative solution of the eigenvalue problem:
     a serial algorithm will be used

 
     Parallelization info
     --------------------
     sticks:   dense  smooth     PW     G-vecs:    dense   smooth      PW
     Min         353     140     34                17398     4383     546
     Max         356     144     36                17404     4390     556
     Sum        4257    1701    421               208801    52635    6619
 


     bravais-lattice index     =            0
     lattice parameter (alat)  =      13.3514  a.u.
     unit-cell volume          =    2380.0325 (a.u.)^3
     number of atoms/cell      =           25
     number of atomic types    =            4
     number of electrons       =        72.00
     number of Kohn-Sham states=          100
     kinetic-energy cutoff     =      30.0000  Ry
     charge density cutoff     =     300.0000  Ry
     convergence threshold     =      1.0E-04
     mixing beta               =       0.3000
     number of iterations used =            8  plain     mixing
     Exchange-correlation      = PBE ( 1  4  3  4 0 0)

     celldm(1)=  13.351425  celldm(2)=   0.000000  celldm(3)=   0.000000
     celldm(4)=   0.000000  celldm(5)=   0.000000  celldm(6)=   0.000000

     crystal axes: (cart. coord. in units of alat)
               a(1) = (   1.000000   0.000000   0.000000 )  
               a(2) = (   0.000000   1.000000   0.000000 )  
               a(3) = (   0.000000   0.000000   1.000000 )  

     reciprocal axes: (cart. coord. in units 2 pi/alat)
               b(1) = (  1.000000  0.000000  0.000000 )  
               b(2) = (  0.000000  1.000000  0.000000 )  
               b(3) = (  0.000000  0.000000  1.000000 )  


     PseudoPot. # 1 for C  read from file:
     /util/academic/espresso/6.2.1/pseudopotentials/upf_files/C.pbe-n-rrkjus_psl.0.1.UPF
     MD5 check sum: ab446d787031eba755f1d5ee46644bb0
     Pseudo is Ultrasoft + core correction, Zval =  4.0
     Generated using "atomic" code by A. Dal Corso v.5.0.2 svn rev. 9415
     Using radial grid of 1073 points,  4 beta functions with: 
                l(1) =   0
                l(2) =   0
                l(3) =   1
                l(4) =   1
     Q(r) pseudized with 0 coefficients 


     PseudoPot. # 2 for H  read from file:
     /util/academic/espresso/6.2.1/pseudopotentials/upf_files/H.pbe-rrkjus_psl.0.1.UPF
     MD5 check sum: bd57da0722753ddfd9833a65b40bb853
     Pseudo is Ultrasoft, Zval =  1.0
     Generated using "atomic" code by A. Dal Corso v.5.0.2 svn rev. 9415
     Using radial grid of  929 points,  2 beta functions with: 
                l(1) =   0
                l(2) =   0
     Q(r) pseudized with 0 coefficients 


     PseudoPot. # 3 for Ir read from file:
     /util/academic/espresso/6.2.1/pseudopotentials/upf_files/Ir.pbe-n-rrkjus_psl.0.2.3.UPF
     MD5 check sum: 0d5bc36db6a0bde07ee800c0d8fcbb77
     Pseudo is Ultrasoft + core correction, Zval =  9.0
     Generated using "atomic" code by A. Dal Corso v.5.0.2 svn rev. 9415
     Using radial grid of 1277 points,  6 beta functions with: 
                l(1) =   0
                l(2) =   0
                l(3) =   1
                l(4) =   1
                l(5) =   2
                l(6) =   2
     Q(r) pseudized with 0 coefficients 


     PseudoPot. # 4 for N  read from file:
     /util/academic/espresso/6.2.1/pseudopotentials/upf_files/N.pbe-n-rrkjus_psl.0.1.UPF
     MD5 check sum: ed8b6a90f28a53b7d71920e7015d2dd6
     Pseudo is Ultrasoft + core correction, Zval =  5.0
     Generated using "atomic" code by A. Dal Corso v.5.0.2 svn rev. 9415
     Using radial grid of 1085 points,  4 beta functions with: 
                l(1) =   0
                l(2) =   0
                l(3) =   1
                l(4) =   1
     Q(r) pseudized with 0 coefficients 


     atomic species   valence    mass     pseudopotential
        C              4.00    12.01000     C ( 1.00)
        H              1.00     1.00700     H ( 1.00)
        Ir             9.00   192.21700     Ir( 1.00)
        N              5.00    14.00600     N ( 1.00)

     No symmetry found



   Cartesian axes

     site n.     atom                  positions (alat units)
         1           Ir  tau(   1) = (  -0.0000251   0.0000534  -0.0009170  )
         2           N   tau(   2) = (   0.1356736  -0.2157847  -0.1600090  )
         3           N   tau(   3) = (  -0.2547912  -0.0093315  -0.1592051  )
         4           N   tau(   4) = (   0.1201614   0.2250412  -0.1604768  )
         5           C   tau(   5) = (  -0.0681956   0.2254404   0.1518895  )
         6           C   tau(   6) = (   0.2291921  -0.0544424   0.1518887  )
         7           C   tau(   7) = (   0.2912467  -0.2763363  -0.0847796  )
         8           C   tau(   8) = (   0.3486906  -0.1910516   0.0868790  )
         9           C   tau(   9) = (  -0.1617403  -0.1723625   0.1522588  )
        10           C   tau(  10) = (   0.0938138   0.3903387  -0.0865157  )
        11           C   tau(  11) = (  -0.0072447   0.3988657   0.0866564  )
        12           C   tau(  12) = (  -0.3852928  -0.1140826  -0.0859839  )
        13           C   tau(  13) = (  -0.3410244  -0.2074774   0.0866876  )
        14           H   tau(  14) = (   0.2640831   0.0158702   0.2835840  )
        15           H   tau(  15) = (   0.4760586  -0.2345035   0.1581323  )
        16           H   tau(  16) = (   0.3773034  -0.3879670  -0.1511686  )
        17           H   tau(  17) = (   0.1481610   0.5199729  -0.1552036  )
        18           H   tau(  18) = (  -0.0348183   0.5330989   0.1586466  )
        19           H   tau(  19) = (  -0.1496384   0.2221259   0.2850162  )
        20           H   tau(  20) = (  -0.4335153  -0.2998262   0.1574880  )
        21           H   tau(  21) = (  -0.1185900  -0.2351800   0.2861048  )
        22           H   tau(  22) = (  -0.5213938  -0.1304569  -0.1563717  )
        23           H   tau(  23) = (   0.0901170  -0.2815670  -0.2795816  )
        24           H   tau(  24) = (   0.1901191   0.2236086  -0.2840323  )
        25           H   tau(  25) = (  -0.2910106   0.0588852  -0.2782648  )

     number of k points=     1  gaussian smearing, width (Ry)=  0.0100
                       cart. coord. in units 2pi/alat
        k(    1) = (   0.0000000   0.0000000   0.0000000), wk =   2.0000000

     Dense  grid:   104401 G-vectors     FFT dimensions: (  75,  75,  75)

     Smooth grid:    26318 G-vectors     FFT dimensions: (  48,  48,  48)

     Estimated max dynamical RAM per process >      46.16 MB

     Estimated total dynamical RAM >     553.92 MB

     Check: negative/imaginary core charge=   -0.000002    0.000000

     Initial potential from superposition of free atoms

     starting charge   71.99934, renormalised to   72.00000
     Starting wfc are   69 randomized atomic wfcs +   31 random wfc

     total cpu time spent up to now is        2.5 secs

     Self-consistent Calculation

     iteration #  1     ecut=    30.00 Ry     beta= 0.30
     Davidson diagonalization with overlap
     ethr =  1.00E-02,  avg # of iterations =  5.0

     total cpu time spent up to now is        2.9 secs

     total energy              =    -243.36214736 Ry
     Harris-Foulkes estimate   =    -244.69801773 Ry
     estimated scf accuracy    <       3.49559101 Ry

     iteration #  2     ecut=    30.00 Ry     beta= 0.30
     Davidson diagonalization with overlap
     ethr =  4.85E-03,  avg # of iterations =  1.0

     total cpu time spent up to now is        3.1 secs

     total energy              =    -243.45994825 Ry
     Harris-Foulkes estimate   =    -243.80057296 Ry
     estimated scf accuracy    <       0.97466975 Ry

     iteration #  3     ecut=    30.00 Ry     beta= 0.30
     Davidson diagonalization with overlap
     ethr =  1.35E-03,  avg # of iterations =  4.0

     total cpu time spent up to now is        3.3 secs

     total energy              =    -243.49689014 Ry
     Harris-Foulkes estimate   =    -243.61522194 Ry
     estimated scf accuracy    <       0.36485840 Ry

     iteration #  4     ecut=    30.00 Ry     beta= 0.30
     Davidson diagonalization with overlap
     ethr =  5.07E-04,  avg # of iterations =  3.0

     negative rho (up, down):  2.939E-08 0.000E+00

     total cpu time spent up to now is        3.5 secs

     total energy              =    -243.52527062 Ry
     Harris-Foulkes estimate   =    -243.54218071 Ry
     estimated scf accuracy    <       0.05302747 Ry

     iteration #  5     ecut=    30.00 Ry     beta= 0.30
     Davidson diagonalization with overlap
     ethr =  7.36E-05,  avg # of iterations =  6.0

     negative rho (up, down):  3.151E-08 0.000E+00

     total cpu time spent up to now is        3.9 secs

     total energy              =    -243.53394464 Ry
     Harris-Foulkes estimate   =    -243.53506285 Ry
     estimated scf accuracy    <       0.00624799 Ry

     iteration #  6     ecut=    30.00 Ry     beta= 0.30
     Davidson diagonalization with overlap
     ethr =  8.68E-06,  avg # of iterations =  2.0

     total cpu time spent up to now is        4.1 secs

     total energy              =    -243.53436805 Ry
     Harris-Foulkes estimate   =    -243.53443940 Ry
     estimated scf accuracy    <       0.00096746 Ry

     iteration #  7     ecut=    30.00 Ry     beta= 0.30
     Davidson diagonalization with overlap
     ethr =  1.34E-06,  avg # of iterations =  2.0

     total cpu time spent up to now is        4.3 secs

     total energy              =    -243.53447965 Ry
     Harris-Foulkes estimate   =    -243.53446499 Ry
     estimated scf accuracy    <       0.00011047 Ry

     iteration #  8     ecut=    30.00 Ry     beta= 0.30
     Davidson diagonalization with overlap
     ethr =  1.53E-07,  avg # of iterations =  3.0

     total cpu time spent up to now is        4.5 secs

     End of self-consistent calculation

          k = 0.0000 0.0000 0.0000 (  3310 PWs)   bands (ev):

   -18.8959 -18.3916 -18.1625 -15.8773 -13.9005 -13.7498 -11.9089 -11.3585
   -10.8815 -10.5629  -9.0285  -8.5610  -8.3571  -7.6815  -7.5457  -7.2123
    -5.9688  -5.7262  -5.5980  -5.1937  -4.9002  -4.5414  -4.3803  -4.1506
    -4.1171  -3.7568  -2.9690  -2.4696  -2.0774  -1.9441  -1.6608  -1.4170
    -0.8000  -0.3362  -0.1115   0.3849   1.9900   2.6106   3.0169   3.2880
     5.0820   5.1410   5.2561   5.4885   5.7580   5.9116   5.9521   6.0626
     6.6494   6.7169   6.9808   7.3747   7.8940   8.1133   8.3870   8.4918
     8.7366   9.0302   9.3299   9.3493   9.5829   9.7840  10.0160  10.5141
    10.8574  11.0638  11.1043  11.2669  11.5788  11.7520  11.9538  12.1614
    12.5438  12.6773  12.7984  12.8896  13.1263  13.3615  13.5665  13.8396
    14.0199  14.2083  14.3104  14.5525  14.7664  14.8705  14.9938  15.1372
    15.2751  15.3981  15.4731  15.7362  15.9852  16.1901  16.5501  16.6391
    16.6834  16.8216  17.0371  17.1903

     the Fermi energy is     1.1504 ev

!    total energy              =    -243.53455669 Ry
     Harris-Foulkes estimate   =    -243.53451273 Ry
     estimated scf accuracy    <       0.00002050 Ry

     The total energy is the sum of the following terms:

     one-electron contribution =    -356.51619765 Ry
     hartree contribution      =     202.43988110 Ry
     xc contribution           =     -93.79559504 Ry
     ewald contribution        =       4.33735490 Ry
     smearing contrib. (-TS)   =      -0.00000000 Ry

     convergence has been achieved in   8 iterations

     Writing output data file x0.save
 
     init_run     :      0.35s CPU      0.43s WALL (       1 calls)
     electrons    :      2.00s CPU      2.09s WALL (       1 calls)

     Called by init_run:
     wfcinit      :      0.03s CPU      0.04s WALL (       1 calls)
     potinit      :      0.07s CPU      0.09s WALL (       1 calls)

     Called by electrons:
     c_bands      :      1.00s CPU      1.02s WALL (       8 calls)
     sum_band     :      0.47s CPU      0.48s WALL (       8 calls)
     v_of_rho     :      0.24s CPU      0.24s WALL (       9 calls)
     newd         :      0.29s CPU      0.31s WALL (       9 calls)
     mix_rho      :      0.03s CPU      0.03s WALL (       8 calls)

     Called by c_bands:
     init_us_2    :      0.00s CPU      0.00s WALL (      17 calls)
     regterg      :      0.98s CPU      1.00s WALL (       8 calls)

     Called by sum_band:
     sum_band:bec :      0.00s CPU      0.00s WALL (       8 calls)
     addusdens    :      0.31s CPU      0.32s WALL (       8 calls)

     Called by *egterg:
     h_psi        :      0.48s CPU      0.50s WALL (      35 calls)
     s_psi        :      0.01s CPU      0.01s WALL (      35 calls)
     g_psi        :      0.00s CPU      0.00s WALL (      26 calls)
     rdiaghg      :      0.40s CPU      0.40s WALL (      34 calls)

     Called by h_psi:
     h_psi:pot    :      0.48s CPU      0.49s WALL (      35 calls)
     h_psi:calbec :      0.02s CPU      0.02s WALL (      35 calls)
     vloc_psi     :      0.45s CPU      0.46s WALL (      35 calls)
     add_vuspsi   :      0.01s CPU      0.01s WALL (      35 calls)

     General routines
     calbec       :      0.02s CPU      0.03s WALL (      43 calls)
     fft          :      0.31s CPU      0.32s WALL (     140 calls)
     ffts         :      0.01s CPU      0.01s WALL (      17 calls)
     fftw         :      0.48s CPU      0.50s WALL (    2476 calls)
     interpolate  :      0.04s CPU      0.04s WALL (      17 calls)
 
     Parallel routines
     fft_scatt_xy :      0.04s CPU      0.04s WALL (    2633 calls)
     fft_scatt_yz :      0.24s CPU      0.25s WALL (    2633 calls)
 
     PWSCF        :     3.85s CPU         5.08s WALL

 
   This run was terminated on:  18:52: 8  22Jun2021            

=------------------------------------------------------------------------------=
   JOB DONE.
=------------------------------------------------------------------------------=
