
     Program PWSCF v.6.2 (svn rev. 14038) starts on 22Jun2021 at 18:54: 2 

     This program is part of the open-source Quantum ESPRESSO suite
     for quantum simulation of materials; please cite
         "P. Giannozzi et al., J. Phys.:Condens. Matter 21 395502 (2009);
         "P. Giannozzi et al., J. Phys.:Condens. Matter 29 465901 (2017);
          URL http://www.quantum-espresso.org", 
     in publications or presentations arising from this work. More details at
     http://www.quantum-espresso.org/quote

     Parallel version (MPI), running on    12 processors

     MPI processes distributed on     1 nodes
     R & G space division:  proc/nbgrp/npool/nimage =      12
     Waiting for input...
     Reading input from standard input

     Current dimensions of program PWSCF are:
     Max number of different atomic species (ntypx) = 10
     Max number of k-points (npk) =  40000
     Max angular momentum in pseudopotentials (lmaxx) =  3
               file Ir.pbe-n-rrkjus_psl.0.2.3.UPF: wavefunction(s)  5D renormalized

     gamma-point specific algorithms are used

     Subspace diagonalization in iterative solution of the eigenvalue problem:
     a serial algorithm will be used

 
     Parallelization info
     --------------------
     sticks:   dense  smooth     PW     G-vecs:    dense   smooth      PW
     Min         353     140     34                17398     4383     546
     Max         356     144     36                17404     4390     556
     Sum        4257    1701    421               208801    52635    6619
 


     bravais-lattice index     =            0
     lattice parameter (alat)  =      13.3514  a.u.
     unit-cell volume          =    2380.0325 (a.u.)^3
     number of atoms/cell      =           25
     number of atomic types    =            4
     number of electrons       =        72.00
     number of Kohn-Sham states=          100
     kinetic-energy cutoff     =      30.0000  Ry
     charge density cutoff     =     300.0000  Ry
     convergence threshold     =      1.0E-04
     mixing beta               =       0.3000
     number of iterations used =            8  plain     mixing
     Exchange-correlation      = PBE ( 1  4  3  4 0 0)

     celldm(1)=  13.351425  celldm(2)=   0.000000  celldm(3)=   0.000000
     celldm(4)=   0.000000  celldm(5)=   0.000000  celldm(6)=   0.000000

     crystal axes: (cart. coord. in units of alat)
               a(1) = (   1.000000   0.000000   0.000000 )  
               a(2) = (   0.000000   1.000000   0.000000 )  
               a(3) = (   0.000000   0.000000   1.000000 )  

     reciprocal axes: (cart. coord. in units 2 pi/alat)
               b(1) = (  1.000000  0.000000  0.000000 )  
               b(2) = (  0.000000  1.000000  0.000000 )  
               b(3) = (  0.000000  0.000000  1.000000 )  


     PseudoPot. # 1 for C  read from file:
     /util/academic/espresso/6.2.1/pseudopotentials/upf_files/C.pbe-n-rrkjus_psl.0.1.UPF
     MD5 check sum: ab446d787031eba755f1d5ee46644bb0
     Pseudo is Ultrasoft + core correction, Zval =  4.0
     Generated using "atomic" code by A. Dal Corso v.5.0.2 svn rev. 9415
     Using radial grid of 1073 points,  4 beta functions with: 
                l(1) =   0
                l(2) =   0
                l(3) =   1
                l(4) =   1
     Q(r) pseudized with 0 coefficients 


     PseudoPot. # 2 for H  read from file:
     /util/academic/espresso/6.2.1/pseudopotentials/upf_files/H.pbe-rrkjus_psl.0.1.UPF
     MD5 check sum: bd57da0722753ddfd9833a65b40bb853
     Pseudo is Ultrasoft, Zval =  1.0
     Generated using "atomic" code by A. Dal Corso v.5.0.2 svn rev. 9415
     Using radial grid of  929 points,  2 beta functions with: 
                l(1) =   0
                l(2) =   0
     Q(r) pseudized with 0 coefficients 


     PseudoPot. # 3 for Ir read from file:
     /util/academic/espresso/6.2.1/pseudopotentials/upf_files/Ir.pbe-n-rrkjus_psl.0.2.3.UPF
     MD5 check sum: 0d5bc36db6a0bde07ee800c0d8fcbb77
     Pseudo is Ultrasoft + core correction, Zval =  9.0
     Generated using "atomic" code by A. Dal Corso v.5.0.2 svn rev. 9415
     Using radial grid of 1277 points,  6 beta functions with: 
                l(1) =   0
                l(2) =   0
                l(3) =   1
                l(4) =   1
                l(5) =   2
                l(6) =   2
     Q(r) pseudized with 0 coefficients 


     PseudoPot. # 4 for N  read from file:
     /util/academic/espresso/6.2.1/pseudopotentials/upf_files/N.pbe-n-rrkjus_psl.0.1.UPF
     MD5 check sum: ed8b6a90f28a53b7d71920e7015d2dd6
     Pseudo is Ultrasoft + core correction, Zval =  5.0
     Generated using "atomic" code by A. Dal Corso v.5.0.2 svn rev. 9415
     Using radial grid of 1085 points,  4 beta functions with: 
                l(1) =   0
                l(2) =   0
                l(3) =   1
                l(4) =   1
     Q(r) pseudized with 0 coefficients 


     atomic species   valence    mass     pseudopotential
        C              4.00    12.01000     C ( 1.00)
        H              1.00     1.00700     H ( 1.00)
        Ir             9.00   192.21700     Ir( 1.00)
        N              5.00    14.00600     N ( 1.00)

     No symmetry found



   Cartesian axes

     site n.     atom                  positions (alat units)
         1           Ir  tau(   1) = (  -0.0011849   0.0045051   0.0016325  )
         2           N   tau(   2) = (   0.1303371  -0.2017329  -0.1738263  )
         3           N   tau(   3) = (  -0.2447022  -0.0022260  -0.1748000  )
         4           N   tau(   4) = (   0.1351379   0.2152988  -0.1541120  )
         5           C   tau(   5) = (  -0.0702085   0.2285921   0.1511142  )
         6           C   tau(   6) = (   0.2117241  -0.0516928   0.1688333  )
         7           C   tau(   7) = (   0.2675986  -0.2802998  -0.0699683  )
         8           C   tau(   8) = (   0.3191495  -0.2027022   0.1116565  )
         9           C   tau(   9) = (  -0.1468398  -0.1774174   0.1443724  )
        10           C   tau(  10) = (   0.0799739   0.3790410  -0.0965197  )
        11           C   tau(  11) = (  -0.0043679   0.3957192   0.0872045  )
        12           C   tau(  12) = (  -0.3598902  -0.1285790  -0.1049024  )
        13           C   tau(  13) = (  -0.3075637  -0.2357279   0.0591017  )
        14           H   tau(  14) = (   0.2587603   0.0150969   0.3020457  )
        15           H   tau(  15) = (   0.4221832  -0.2745609   0.1969319  )
        16           H   tau(  16) = (   0.3629068  -0.3942081  -0.1069441  )
        17           H   tau(  17) = (   0.1079354   0.4948127  -0.2081640  )
        18           H   tau(  18) = (  -0.0178946   0.5288577   0.1657262  )
        19           H   tau(  19) = (  -0.1321086   0.2093537   0.2907203  )
        20           H   tau(  20) = (  -0.3756210  -0.3720602   0.0773423  )
        21           H   tau(  21) = (  -0.0905167  -0.2379678   0.2704943  )
        22           H   tau(  22) = (  -0.4897369  -0.1562573  -0.1796302  )
        23           H   tau(  23) = (   0.1126007  -0.2703215  -0.2993744  )
        24           H   tau(  24) = (   0.2010865   0.2158078  -0.2871522  )
        25           H   tau(  25) = (  -0.2980377   0.0952147  -0.2672667  )

     number of k points=     1  gaussian smearing, width (Ry)=  0.0100
                       cart. coord. in units 2pi/alat
        k(    1) = (   0.0000000   0.0000000   0.0000000), wk =   2.0000000

     Dense  grid:   104401 G-vectors     FFT dimensions: (  75,  75,  75)

     Smooth grid:    26318 G-vectors     FFT dimensions: (  48,  48,  48)

     Estimated max dynamical RAM per process >      46.16 MB

     Estimated total dynamical RAM >     553.92 MB

     Check: negative/imaginary core charge=   -0.000002    0.000000

     Initial potential from superposition of free atoms

     starting charge   71.99934, renormalised to   72.00000
     Starting wfc are   69 randomized atomic wfcs +   31 random wfc

     total cpu time spent up to now is        2.5 secs

     Self-consistent Calculation

     iteration #  1     ecut=    30.00 Ry     beta= 0.30
     Davidson diagonalization with overlap
     ethr =  1.00E-02,  avg # of iterations =  5.0

     total cpu time spent up to now is        2.8 secs

     total energy              =    -243.67132732 Ry
     Harris-Foulkes estimate   =    -244.93314176 Ry
     estimated scf accuracy    <       3.33200451 Ry

     iteration #  2     ecut=    30.00 Ry     beta= 0.30
     Davidson diagonalization with overlap
     ethr =  4.63E-03,  avg # of iterations =  1.0

     total cpu time spent up to now is        3.0 secs

     total energy              =    -243.74889124 Ry
     Harris-Foulkes estimate   =    -244.03983793 Ry
     estimated scf accuracy    <       0.80902387 Ry

     iteration #  3     ecut=    30.00 Ry     beta= 0.30
     Davidson diagonalization with overlap
     ethr =  1.12E-03,  avg # of iterations =  5.0

     total cpu time spent up to now is        3.3 secs

     total energy              =    -243.77956616 Ry
     Harris-Foulkes estimate   =    -243.87804363 Ry
     estimated scf accuracy    <       0.31807301 Ry

     iteration #  4     ecut=    30.00 Ry     beta= 0.30
     Davidson diagonalization with overlap
     ethr =  4.42E-04,  avg # of iterations =  3.0

     negative rho (up, down):  1.337E-07 0.000E+00

     total cpu time spent up to now is        3.5 secs

     total energy              =    -243.80113351 Ry
     Harris-Foulkes estimate   =    -243.81909982 Ry
     estimated scf accuracy    <       0.05442881 Ry

     iteration #  5     ecut=    30.00 Ry     beta= 0.30
     Davidson diagonalization with overlap
     ethr =  7.56E-05,  avg # of iterations =  7.0

     negative rho (up, down):  1.705E-07 0.000E+00

     total cpu time spent up to now is        3.9 secs

     total energy              =    -243.80875636 Ry
     Harris-Foulkes estimate   =    -243.80969529 Ry
     estimated scf accuracy    <       0.00512653 Ry

     iteration #  6     ecut=    30.00 Ry     beta= 0.30
     Davidson diagonalization with overlap
     ethr =  7.12E-06,  avg # of iterations =  2.0

     negative rho (up, down):  3.650E-08 0.000E+00

     total cpu time spent up to now is        4.1 secs

     total energy              =    -243.80924173 Ry
     Harris-Foulkes estimate   =    -243.80934548 Ry
     estimated scf accuracy    <       0.00084777 Ry

     iteration #  7     ecut=    30.00 Ry     beta= 0.30
     Davidson diagonalization with overlap
     ethr =  1.18E-06,  avg # of iterations =  2.0

     total cpu time spent up to now is        4.3 secs

     total energy              =    -243.80933981 Ry
     Harris-Foulkes estimate   =    -243.80931694 Ry
     estimated scf accuracy    <       0.00010156 Ry

     iteration #  8     ecut=    30.00 Ry     beta= 0.30
     Davidson diagonalization with overlap
     ethr =  1.41E-07,  avg # of iterations =  3.0

     total cpu time spent up to now is        4.6 secs

     End of self-consistent calculation

          k = 0.0000 0.0000 0.0000 (  3310 PWs)   bands (ev):

   -18.4699 -18.1234 -17.9406 -14.4027 -14.1428 -13.8973 -11.5930 -10.7306
   -10.5443  -9.0999  -8.6363  -8.3424  -8.2045  -8.0426  -7.6104  -6.4073
    -6.1085  -5.9913  -5.6456  -5.3443  -4.9333  -4.9157  -4.4775  -4.0302
    -3.8434  -3.6747  -3.5551  -2.4589  -2.2816  -2.1193  -1.6152  -1.4114
    -1.3452  -0.4658  -0.2363   0.3761   1.9488   2.5949   3.0544   3.1967
     4.9770   5.0270   5.3649   5.5588   5.5845   5.7290   6.0548   6.0972
     6.6703   6.9008   7.1338   7.4293   7.7729   7.9721   8.0973   8.3725
     8.6968   8.9665   9.0641   9.3495   9.5545   9.8376  10.0185  10.7062
    10.8004  10.9397  11.0624  11.2699  11.6427  11.9388  11.9911  12.2785
    12.4198  12.5017  12.5766  12.7991  13.2345  13.4137  13.5065  13.7837
    13.9076  14.0490  14.2555  14.4134  14.7098  14.8551  14.9616  15.1385
    15.2659  15.3636  15.5187  15.7687  15.8856  15.9232  16.2648  16.6219
    16.7115  16.9407  16.9757  17.0780

     the Fermi energy is     1.2778 ev

!    total energy              =    -243.80940730 Ry
     Harris-Foulkes estimate   =    -243.80936576 Ry
     estimated scf accuracy    <       0.00001962 Ry

     The total energy is the sum of the following terms:

     one-electron contribution =    -346.39894061 Ry
     hartree contribution      =     197.42263704 Ry
     xc contribution           =     -93.48078302 Ry
     ewald contribution        =      -1.35232071 Ry
     smearing contrib. (-TS)   =      -0.00000000 Ry

     convergence has been achieved in   8 iterations

     Writing output data file x0.save
 
     init_run     :      0.37s CPU      0.44s WALL (       1 calls)
     electrons    :      2.09s CPU      2.19s WALL (       1 calls)

     Called by init_run:
     wfcinit      :      0.03s CPU      0.06s WALL (       1 calls)
     potinit      :      0.07s CPU      0.07s WALL (       1 calls)

     Called by electrons:
     c_bands      :      1.04s CPU      1.06s WALL (       8 calls)
     sum_band     :      0.49s CPU      0.50s WALL (       8 calls)
     v_of_rho     :      0.25s CPU      0.26s WALL (       9 calls)
     newd         :      0.31s CPU      0.33s WALL (       9 calls)
     mix_rho      :      0.03s CPU      0.03s WALL (       8 calls)

     Called by c_bands:
     init_us_2    :      0.00s CPU      0.01s WALL (      17 calls)
     regterg      :      1.03s CPU      1.05s WALL (       8 calls)

     Called by sum_band:
     sum_band:bec :      0.00s CPU      0.00s WALL (       8 calls)
     addusdens    :      0.33s CPU      0.35s WALL (       8 calls)

     Called by *egterg:
     h_psi        :      0.48s CPU      0.49s WALL (      37 calls)
     s_psi        :      0.01s CPU      0.01s WALL (      37 calls)
     g_psi        :      0.00s CPU      0.00s WALL (      28 calls)
     rdiaghg      :      0.43s CPU      0.44s WALL (      36 calls)

     Called by h_psi:
     h_psi:pot    :      0.48s CPU      0.49s WALL (      37 calls)
     h_psi:calbec :      0.02s CPU      0.02s WALL (      37 calls)
     vloc_psi     :      0.45s CPU      0.46s WALL (      37 calls)
     add_vuspsi   :      0.01s CPU      0.01s WALL (      37 calls)

     General routines
     calbec       :      0.03s CPU      0.03s WALL (      45 calls)
     fft          :      0.26s CPU      0.27s WALL (     140 calls)
     ffts         :      0.01s CPU      0.01s WALL (      17 calls)
     fftw         :      0.48s CPU      0.49s WALL (    2478 calls)
     interpolate  :      0.04s CPU      0.04s WALL (      17 calls)
 
     Parallel routines
     fft_scatt_xy :      0.04s CPU      0.04s WALL (    2635 calls)
     fft_scatt_yz :      0.15s CPU      0.16s WALL (    2635 calls)
 
     PWSCF        :     4.14s CPU         5.18s WALL

 
   This run was terminated on:  18:54: 7  22Jun2021            

=------------------------------------------------------------------------------=
   JOB DONE.
=------------------------------------------------------------------------------=
