
     Program PWSCF v.6.2 (svn rev. 14038) starts on 22Jun2021 at 18:55: 5 

     This program is part of the open-source Quantum ESPRESSO suite
     for quantum simulation of materials; please cite
         "P. Giannozzi et al., J. Phys.:Condens. Matter 21 395502 (2009);
         "P. Giannozzi et al., J. Phys.:Condens. Matter 29 465901 (2017);
          URL http://www.quantum-espresso.org", 
     in publications or presentations arising from this work. More details at
     http://www.quantum-espresso.org/quote

     Parallel version (MPI), running on    12 processors

     MPI processes distributed on     1 nodes
     R & G space division:  proc/nbgrp/npool/nimage =      12
     Waiting for input...
     Reading input from standard input

     Current dimensions of program PWSCF are:
     Max number of different atomic species (ntypx) = 10
     Max number of k-points (npk) =  40000
     Max angular momentum in pseudopotentials (lmaxx) =  3
               file Ir.pbe-n-rrkjus_psl.0.2.3.UPF: wavefunction(s)  5D renormalized

     gamma-point specific algorithms are used

     Subspace diagonalization in iterative solution of the eigenvalue problem:
     a serial algorithm will be used

 
     Parallelization info
     --------------------
     sticks:   dense  smooth     PW     G-vecs:    dense   smooth      PW
     Min         353     140     34                17398     4383     546
     Max         356     144     36                17404     4390     556
     Sum        4257    1701    421               208801    52635    6619
 


     bravais-lattice index     =            0
     lattice parameter (alat)  =      13.3514  a.u.
     unit-cell volume          =    2380.0325 (a.u.)^3
     number of atoms/cell      =           25
     number of atomic types    =            4
     number of electrons       =        72.00
     number of Kohn-Sham states=          100
     kinetic-energy cutoff     =      30.0000  Ry
     charge density cutoff     =     300.0000  Ry
     convergence threshold     =      1.0E-04
     mixing beta               =       0.3000
     number of iterations used =            8  plain     mixing
     Exchange-correlation      = PBE ( 1  4  3  4 0 0)

     celldm(1)=  13.351425  celldm(2)=   0.000000  celldm(3)=   0.000000
     celldm(4)=   0.000000  celldm(5)=   0.000000  celldm(6)=   0.000000

     crystal axes: (cart. coord. in units of alat)
               a(1) = (   1.000000   0.000000   0.000000 )  
               a(2) = (   0.000000   1.000000   0.000000 )  
               a(3) = (   0.000000   0.000000   1.000000 )  

     reciprocal axes: (cart. coord. in units 2 pi/alat)
               b(1) = (  1.000000  0.000000  0.000000 )  
               b(2) = (  0.000000  1.000000  0.000000 )  
               b(3) = (  0.000000  0.000000  1.000000 )  


     PseudoPot. # 1 for C  read from file:
     /util/academic/espresso/6.2.1/pseudopotentials/upf_files/C.pbe-n-rrkjus_psl.0.1.UPF
     MD5 check sum: ab446d787031eba755f1d5ee46644bb0
     Pseudo is Ultrasoft + core correction, Zval =  4.0
     Generated using "atomic" code by A. Dal Corso v.5.0.2 svn rev. 9415
     Using radial grid of 1073 points,  4 beta functions with: 
                l(1) =   0
                l(2) =   0
                l(3) =   1
                l(4) =   1
     Q(r) pseudized with 0 coefficients 


     PseudoPot. # 2 for H  read from file:
     /util/academic/espresso/6.2.1/pseudopotentials/upf_files/H.pbe-rrkjus_psl.0.1.UPF
     MD5 check sum: bd57da0722753ddfd9833a65b40bb853
     Pseudo is Ultrasoft, Zval =  1.0
     Generated using "atomic" code by A. Dal Corso v.5.0.2 svn rev. 9415
     Using radial grid of  929 points,  2 beta functions with: 
                l(1) =   0
                l(2) =   0
     Q(r) pseudized with 0 coefficients 


     PseudoPot. # 3 for Ir read from file:
     /util/academic/espresso/6.2.1/pseudopotentials/upf_files/Ir.pbe-n-rrkjus_psl.0.2.3.UPF
     MD5 check sum: 0d5bc36db6a0bde07ee800c0d8fcbb77
     Pseudo is Ultrasoft + core correction, Zval =  9.0
     Generated using "atomic" code by A. Dal Corso v.5.0.2 svn rev. 9415
     Using radial grid of 1277 points,  6 beta functions with: 
                l(1) =   0
                l(2) =   0
                l(3) =   1
                l(4) =   1
                l(5) =   2
                l(6) =   2
     Q(r) pseudized with 0 coefficients 


     PseudoPot. # 4 for N  read from file:
     /util/academic/espresso/6.2.1/pseudopotentials/upf_files/N.pbe-n-rrkjus_psl.0.1.UPF
     MD5 check sum: ed8b6a90f28a53b7d71920e7015d2dd6
     Pseudo is Ultrasoft + core correction, Zval =  5.0
     Generated using "atomic" code by A. Dal Corso v.5.0.2 svn rev. 9415
     Using radial grid of 1085 points,  4 beta functions with: 
                l(1) =   0
                l(2) =   0
                l(3) =   1
                l(4) =   1
     Q(r) pseudized with 0 coefficients 


     atomic species   valence    mass     pseudopotential
        C              4.00    12.01000     C ( 1.00)
        H              1.00     1.00700     H ( 1.00)
        Ir             9.00   192.21700     Ir( 1.00)
        N              5.00    14.00600     N ( 1.00)

     No symmetry found



   Cartesian axes

     site n.     atom                  positions (alat units)
         1           Ir  tau(   1) = (   0.0003647   0.0042074   0.0012829  )
         2           N   tau(   2) = (   0.1345090  -0.2067429  -0.1722869  )
         3           N   tau(   3) = (  -0.2438150   0.0028010  -0.1737970  )
         4           N   tau(   4) = (   0.1225580   0.2162516  -0.1520858  )
         5           C   tau(   5) = (  -0.0750406   0.2248254   0.1514741  )
         6           C   tau(   6) = (   0.2087102  -0.0560923   0.1785089  )
         7           C   tau(   7) = (   0.2708980  -0.2742493  -0.0672870  )
         8           C   tau(   8) = (   0.3131459  -0.1997154   0.1131129  )
         9           C   tau(   9) = (  -0.1476089  -0.1797422   0.1459158  )
        10           C   tau(  10) = (   0.0804001   0.3856986  -0.1019026  )
        11           C   tau(  11) = (  -0.0049037   0.3929223   0.0896743  )
        12           C   tau(  12) = (  -0.3582954  -0.1264106  -0.1124257  )
        13           C   tau(  13) = (  -0.3085617  -0.2428007   0.0506647  )
        14           H   tau(  14) = (   0.2514352   0.0331888   0.3072824  )
        15           H   tau(  15) = (   0.4130284  -0.2684857   0.2100742  )
        16           H   tau(  16) = (   0.3721457  -0.3892860  -0.1101246  )
        17           H   tau(  17) = (   0.1017275   0.5185604  -0.1948567  )
        18           H   tau(  18) = (  -0.0176745   0.5401305   0.1496974  )
        19           H   tau(  19) = (  -0.1427879   0.2286828   0.2878054  )
        20           H   tau(  20) = (  -0.4035987  -0.3457730   0.1209217  )
        21           H   tau(  21) = (  -0.1093105  -0.2451832   0.2834302  )
        22           H   tau(  22) = (  -0.4978750  -0.1328925  -0.1907170  )
        23           H   tau(  23) = (   0.1226083  -0.2758146  -0.2984959  )
        24           H   tau(  24) = (   0.1823816   0.1901313  -0.2794606  )
        25           H   tau(  25) = (  -0.2725209   0.0736381  -0.2899954  )

     number of k points=     1  gaussian smearing, width (Ry)=  0.0100
                       cart. coord. in units 2pi/alat
        k(    1) = (   0.0000000   0.0000000   0.0000000), wk =   2.0000000

     Dense  grid:   104401 G-vectors     FFT dimensions: (  75,  75,  75)

     Smooth grid:    26318 G-vectors     FFT dimensions: (  48,  48,  48)

     Estimated max dynamical RAM per process >      46.16 MB

     Estimated total dynamical RAM >     553.92 MB

     Check: negative/imaginary core charge=   -0.000002    0.000000

     Initial potential from superposition of free atoms

     starting charge   71.99934, renormalised to   72.00000
     Starting wfc are   69 randomized atomic wfcs +   31 random wfc

     total cpu time spent up to now is        2.4 secs

     Self-consistent Calculation

     iteration #  1     ecut=    30.00 Ry     beta= 0.30
     Davidson diagonalization with overlap
     ethr =  1.00E-02,  avg # of iterations =  5.0

     total cpu time spent up to now is        2.7 secs

     total energy              =    -243.65890972 Ry
     Harris-Foulkes estimate   =    -244.88493862 Ry
     estimated scf accuracy    <       3.23598396 Ry

     iteration #  2     ecut=    30.00 Ry     beta= 0.30
     Davidson diagonalization with overlap
     ethr =  4.49E-03,  avg # of iterations =  1.0

     total cpu time spent up to now is        2.9 secs

     total energy              =    -243.73863310 Ry
     Harris-Foulkes estimate   =    -244.01209313 Ry
     estimated scf accuracy    <       0.75865292 Ry

     iteration #  3     ecut=    30.00 Ry     beta= 0.30
     Davidson diagonalization with overlap
     ethr =  1.05E-03,  avg # of iterations =  5.0

     total cpu time spent up to now is        3.2 secs

     total energy              =    -243.76883507 Ry
     Harris-Foulkes estimate   =    -243.86210424 Ry
     estimated scf accuracy    <       0.30873361 Ry

     iteration #  4     ecut=    30.00 Ry     beta= 0.30
     Davidson diagonalization with overlap
     ethr =  4.29E-04,  avg # of iterations =  1.0

     negative rho (up, down):  2.049E-07 0.000E+00

     total cpu time spent up to now is        3.4 secs

     total energy              =    -243.78826715 Ry
     Harris-Foulkes estimate   =    -243.80661697 Ry
     estimated scf accuracy    <       0.05523830 Ry

     iteration #  5     ecut=    30.00 Ry     beta= 0.30
     Davidson diagonalization with overlap
     ethr =  7.67E-05,  avg # of iterations =  5.0

     negative rho (up, down):  1.836E-07 0.000E+00

     total cpu time spent up to now is        3.7 secs

     total energy              =    -243.79702705 Ry
     Harris-Foulkes estimate   =    -243.79781573 Ry
     estimated scf accuracy    <       0.00473969 Ry

     iteration #  6     ecut=    30.00 Ry     beta= 0.30
     Davidson diagonalization with overlap
     ethr =  6.58E-06,  avg # of iterations =  2.0

     negative rho (up, down):  6.941E-08 0.000E+00

     total cpu time spent up to now is        3.9 secs

     total energy              =    -243.79740621 Ry
     Harris-Foulkes estimate   =    -243.79750598 Ry
     estimated scf accuracy    <       0.00085566 Ry

     iteration #  7     ecut=    30.00 Ry     beta= 0.30
     Davidson diagonalization with overlap
     ethr =  1.19E-06,  avg # of iterations = 12.0

     total cpu time spent up to now is        4.3 secs

     End of self-consistent calculation

          k = 0.0000 0.0000 0.0000 (  3310 PWs)   bands (ev):

   -18.6847 -18.2807 -18.1272 -14.5344 -13.8800 -13.7492 -11.4930 -10.8266
   -10.6006  -9.3445  -8.6770  -8.2554  -8.0586  -8.0063  -7.5465  -6.6512
    -5.9951  -5.9024  -5.4490  -5.2704  -5.0812  -4.7975  -4.3701  -4.1494
    -3.9483  -3.5915  -3.3633  -2.5801  -2.1890  -2.0480  -1.5524  -1.4752
    -1.2312  -0.3515  -0.1845   0.1845   1.9549   2.5822   3.1027   3.2605
     4.9246   5.1044   5.4342   5.5671   5.6530   5.7033   5.9866   6.1376
     6.6160   6.7259   7.1406   7.3242   7.7829   7.8717   8.1415   8.3069
     8.6450   8.9233   9.0362   9.1613   9.4687   9.7280   9.9428  10.7086
    10.7763  10.9541  11.1240  11.1756  11.5199  11.7556  11.8533  12.1644
    12.2434  12.5179  12.6510  12.7692  13.0925  13.3327  13.4797  13.8195
    13.9751  14.0861  14.2872  14.4413  14.6221  14.7638  14.8742  15.1067
    15.1806  15.2979  15.3727  15.7848  15.8518  15.9392  16.3314  16.5789
    16.6603  16.9118  16.9754  17.1913

     the Fermi energy is     0.9605 ev

!    total energy              =    -243.79755229 Ry
     Harris-Foulkes estimate   =    -243.79748427 Ry
     estimated scf accuracy    <       0.00007897 Ry

     The total energy is the sum of the following terms:

     one-electron contribution =    -344.41406055 Ry
     hartree contribution      =     196.34255658 Ry
     xc contribution           =     -93.35072404 Ry
     ewald contribution        =      -2.37532428 Ry
     smearing contrib. (-TS)   =      -0.00000000 Ry

     convergence has been achieved in   7 iterations

     Writing output data file x0.save
 
     init_run     :      0.34s CPU      0.64s WALL (       1 calls)
     electrons    :      1.87s CPU      1.97s WALL (       1 calls)

     Called by init_run:
     wfcinit      :      0.03s CPU      0.04s WALL (       1 calls)
     potinit      :      0.07s CPU      0.07s WALL (       1 calls)

     Called by electrons:
     c_bands      :      1.00s CPU      1.02s WALL (       7 calls)
     sum_band     :      0.41s CPU      0.42s WALL (       7 calls)
     v_of_rho     :      0.21s CPU      0.22s WALL (       8 calls)
     newd         :      0.24s CPU      0.51s WALL (       8 calls)
     mix_rho      :      0.03s CPU      0.03s WALL (       7 calls)

     Called by c_bands:
     init_us_2    :      0.00s CPU      0.00s WALL (      15 calls)
     regterg      :      0.98s CPU      1.01s WALL (       7 calls)

     Called by sum_band:
     sum_band:bec :      0.00s CPU      0.00s WALL (       7 calls)
     addusdens    :      0.27s CPU      0.28s WALL (       7 calls)

     Called by *egterg:
     h_psi        :      0.44s CPU      0.45s WALL (      39 calls)
     s_psi        :      0.01s CPU      0.01s WALL (      39 calls)
     g_psi        :      0.00s CPU      0.00s WALL (      31 calls)
     rdiaghg      :      0.46s CPU      0.46s WALL (      38 calls)

     Called by h_psi:
     h_psi:pot    :      0.44s CPU      0.45s WALL (      39 calls)
     h_psi:calbec :      0.02s CPU      0.02s WALL (      39 calls)
     vloc_psi     :      0.41s CPU      0.42s WALL (      39 calls)
     add_vuspsi   :      0.01s CPU      0.01s WALL (      39 calls)

     General routines
     calbec       :      0.02s CPU      0.02s WALL (      46 calls)
     fft          :      0.29s CPU      0.30s WALL (     124 calls)
     ffts         :      0.01s CPU      0.01s WALL (      15 calls)
     fftw         :      0.44s CPU      0.45s WALL (    2210 calls)
     interpolate  :      0.03s CPU      0.03s WALL (      15 calls)
 
     Parallel routines
     fft_scatt_xy :      0.04s CPU      0.04s WALL (    2349 calls)
     fft_scatt_yz :      0.23s CPU      0.23s WALL (    2349 calls)
 
     PWSCF        :     3.85s CPU         4.80s WALL

 
   This run was terminated on:  18:55:10  22Jun2021            

=------------------------------------------------------------------------------=
   JOB DONE.
=------------------------------------------------------------------------------=
