
     Program PWSCF v.6.2 (svn rev. 14038) starts on 22Jun2021 at 18:57:38 

     This program is part of the open-source Quantum ESPRESSO suite
     for quantum simulation of materials; please cite
         "P. Giannozzi et al., J. Phys.:Condens. Matter 21 395502 (2009);
         "P. Giannozzi et al., J. Phys.:Condens. Matter 29 465901 (2017);
          URL http://www.quantum-espresso.org", 
     in publications or presentations arising from this work. More details at
     http://www.quantum-espresso.org/quote

     Parallel version (MPI), running on    12 processors

     MPI processes distributed on     1 nodes
     R & G space division:  proc/nbgrp/npool/nimage =      12
     Waiting for input...
     Reading input from standard input

     Current dimensions of program PWSCF are:
     Max number of different atomic species (ntypx) = 10
     Max number of k-points (npk) =  40000
     Max angular momentum in pseudopotentials (lmaxx) =  3
               file Ir.pbe-n-rrkjus_psl.0.2.3.UPF: wavefunction(s)  5D renormalized

     gamma-point specific algorithms are used

     Subspace diagonalization in iterative solution of the eigenvalue problem:
     a serial algorithm will be used

 
     Parallelization info
     --------------------
     sticks:   dense  smooth     PW     G-vecs:    dense   smooth      PW
     Min         353     140     34                17398     4383     546
     Max         356     144     36                17404     4390     556
     Sum        4257    1701    421               208801    52635    6619
 


     bravais-lattice index     =            0
     lattice parameter (alat)  =      13.3514  a.u.
     unit-cell volume          =    2380.0325 (a.u.)^3
     number of atoms/cell      =           25
     number of atomic types    =            4
     number of electrons       =        72.00
     number of Kohn-Sham states=          100
     kinetic-energy cutoff     =      30.0000  Ry
     charge density cutoff     =     300.0000  Ry
     convergence threshold     =      1.0E-04
     mixing beta               =       0.3000
     number of iterations used =            8  plain     mixing
     Exchange-correlation      = PBE ( 1  4  3  4 0 0)

     celldm(1)=  13.351425  celldm(2)=   0.000000  celldm(3)=   0.000000
     celldm(4)=   0.000000  celldm(5)=   0.000000  celldm(6)=   0.000000

     crystal axes: (cart. coord. in units of alat)
               a(1) = (   1.000000   0.000000   0.000000 )  
               a(2) = (   0.000000   1.000000   0.000000 )  
               a(3) = (   0.000000   0.000000   1.000000 )  

     reciprocal axes: (cart. coord. in units 2 pi/alat)
               b(1) = (  1.000000  0.000000  0.000000 )  
               b(2) = (  0.000000  1.000000  0.000000 )  
               b(3) = (  0.000000  0.000000  1.000000 )  


     PseudoPot. # 1 for C  read from file:
     /util/academic/espresso/6.2.1/pseudopotentials/upf_files/C.pbe-n-rrkjus_psl.0.1.UPF
     MD5 check sum: ab446d787031eba755f1d5ee46644bb0
     Pseudo is Ultrasoft + core correction, Zval =  4.0
     Generated using "atomic" code by A. Dal Corso v.5.0.2 svn rev. 9415
     Using radial grid of 1073 points,  4 beta functions with: 
                l(1) =   0
                l(2) =   0
                l(3) =   1
                l(4) =   1
     Q(r) pseudized with 0 coefficients 


     PseudoPot. # 2 for H  read from file:
     /util/academic/espresso/6.2.1/pseudopotentials/upf_files/H.pbe-rrkjus_psl.0.1.UPF
     MD5 check sum: bd57da0722753ddfd9833a65b40bb853
     Pseudo is Ultrasoft, Zval =  1.0
     Generated using "atomic" code by A. Dal Corso v.5.0.2 svn rev. 9415
     Using radial grid of  929 points,  2 beta functions with: 
                l(1) =   0
                l(2) =   0
     Q(r) pseudized with 0 coefficients 


     PseudoPot. # 3 for Ir read from file:
     /util/academic/espresso/6.2.1/pseudopotentials/upf_files/Ir.pbe-n-rrkjus_psl.0.2.3.UPF
     MD5 check sum: 0d5bc36db6a0bde07ee800c0d8fcbb77
     Pseudo is Ultrasoft + core correction, Zval =  9.0
     Generated using "atomic" code by A. Dal Corso v.5.0.2 svn rev. 9415
     Using radial grid of 1277 points,  6 beta functions with: 
                l(1) =   0
                l(2) =   0
                l(3) =   1
                l(4) =   1
                l(5) =   2
                l(6) =   2
     Q(r) pseudized with 0 coefficients 


     PseudoPot. # 4 for N  read from file:
     /util/academic/espresso/6.2.1/pseudopotentials/upf_files/N.pbe-n-rrkjus_psl.0.1.UPF
     MD5 check sum: ed8b6a90f28a53b7d71920e7015d2dd6
     Pseudo is Ultrasoft + core correction, Zval =  5.0
     Generated using "atomic" code by A. Dal Corso v.5.0.2 svn rev. 9415
     Using radial grid of 1085 points,  4 beta functions with: 
                l(1) =   0
                l(2) =   0
                l(3) =   1
                l(4) =   1
     Q(r) pseudized with 0 coefficients 


     atomic species   valence    mass     pseudopotential
        C              4.00    12.01000     C ( 1.00)
        H              1.00     1.00700     H ( 1.00)
        Ir             9.00   192.21700     Ir( 1.00)
        N              5.00    14.00600     N ( 1.00)

     No symmetry found



   Cartesian axes

     site n.     atom                  positions (alat units)
         1           Ir  tau(   1) = (  -0.0003165   0.0043164   0.0017517  )
         2           N   tau(   2) = (   0.1600466  -0.1853165  -0.1576012  )
         3           N   tau(   3) = (  -0.2362208   0.0026722  -0.1701579  )
         4           N   tau(   4) = (   0.1077927   0.2148513  -0.1712092  )
         5           C   tau(   5) = (  -0.0793470   0.2277044   0.1509632  )
         6           C   tau(   6) = (   0.2159861  -0.0537393   0.1804600  )
         7           C   tau(   7) = (   0.2853563  -0.2799311  -0.0507976  )
         8           C   tau(   8) = (   0.3137052  -0.2135707   0.1310395  )
         9           C   tau(   9) = (  -0.1525011  -0.1794874   0.1322411  )
        10           C   tau(  10) = (   0.0745918   0.3830593  -0.0974863  )
        11           C   tau(  11) = (  -0.0106808   0.3924739   0.0876091  )
        12           C   tau(  12) = (  -0.3579372  -0.1365353  -0.1223038  )
        13           C   tau(  13) = (  -0.3186728  -0.2373048   0.0397116  )
        14           H   tau(  14) = (   0.2517165   0.0174299   0.3083353  )
        15           H   tau(  15) = (   0.4143927  -0.2758981   0.2311921  )
        16           H   tau(  16) = (   0.3722019  -0.3967128  -0.0989317  )
        17           H   tau(  17) = (   0.0746794   0.5011472  -0.1872709  )
        18           H   tau(  18) = (  -0.0129156   0.5313233   0.1442402  )
        19           H   tau(  19) = (  -0.1573365   0.2210387   0.2774759  )
        20           H   tau(  20) = (  -0.3957460  -0.3737418   0.0608338  )
        21           H   tau(  21) = (  -0.1205686  -0.2301089   0.2797771  )
        22           H   tau(  22) = (  -0.4589025  -0.1762501  -0.2336337  )
        23           H   tau(  23) = (   0.1276930  -0.2189960  -0.2988973  )
        24           H   tau(  24) = (   0.1404754   0.2100365  -0.3106320  )
        25           H   tau(  25) = (  -0.2632278   0.0796844  -0.2994572  )

     number of k points=     1  gaussian smearing, width (Ry)=  0.0100
                       cart. coord. in units 2pi/alat
        k(    1) = (   0.0000000   0.0000000   0.0000000), wk =   2.0000000

     Dense  grid:   104401 G-vectors     FFT dimensions: (  75,  75,  75)

     Smooth grid:    26318 G-vectors     FFT dimensions: (  48,  48,  48)

     Estimated max dynamical RAM per process >      46.16 MB

     Estimated total dynamical RAM >     553.92 MB

     Check: negative/imaginary core charge=   -0.000002    0.000000

     Initial potential from superposition of free atoms

     starting charge   71.99934, renormalised to   72.00000
     Starting wfc are   69 randomized atomic wfcs +   31 random wfc

     total cpu time spent up to now is        2.6 secs

     Self-consistent Calculation

     iteration #  1     ecut=    30.00 Ry     beta= 0.30
     Davidson diagonalization with overlap
     ethr =  1.00E-02,  avg # of iterations =  5.0

     total cpu time spent up to now is        3.0 secs

     total energy              =    -243.64704760 Ry
     Harris-Foulkes estimate   =    -244.97368736 Ry
     estimated scf accuracy    <       3.46332431 Ry

     iteration #  2     ecut=    30.00 Ry     beta= 0.30
     Davidson diagonalization with overlap
     ethr =  4.81E-03,  avg # of iterations =  1.0

     total cpu time spent up to now is        3.2 secs

     total energy              =    -243.76478542 Ry
     Harris-Foulkes estimate   =    -244.08955684 Ry
     estimated scf accuracy    <       0.93472571 Ry

     iteration #  3     ecut=    30.00 Ry     beta= 0.30
     Davidson diagonalization with overlap
     ethr =  1.30E-03,  avg # of iterations =  4.0

     total cpu time spent up to now is        3.5 secs

     total energy              =    -243.80521940 Ry
     Harris-Foulkes estimate   =    -243.91484142 Ry
     estimated scf accuracy    <       0.34423900 Ry

     iteration #  4     ecut=    30.00 Ry     beta= 0.30
     Davidson diagonalization with overlap
     ethr =  4.78E-04,  avg # of iterations =  3.0

     negative rho (up, down):  1.993E-07 0.000E+00

     total cpu time spent up to now is        3.7 secs

     total energy              =    -243.82877810 Ry
     Harris-Foulkes estimate   =    -243.84674500 Ry
     estimated scf accuracy    <       0.05397223 Ry

     iteration #  5     ecut=    30.00 Ry     beta= 0.30
     Davidson diagonalization with overlap
     ethr =  7.50E-05,  avg # of iterations =  8.0

     negative rho (up, down):  4.010E-07 0.000E+00

     total cpu time spent up to now is        4.1 secs

     total energy              =    -243.83698771 Ry
     Harris-Foulkes estimate   =    -243.83805721 Ry
     estimated scf accuracy    <       0.00555017 Ry

     iteration #  6     ecut=    30.00 Ry     beta= 0.30
     Davidson diagonalization with overlap
     ethr =  7.71E-06,  avg # of iterations =  2.0

     negative rho (up, down):  1.962E-07 0.000E+00

     total cpu time spent up to now is        4.3 secs

     total energy              =    -243.83739332 Ry
     Harris-Foulkes estimate   =    -243.83750113 Ry
     estimated scf accuracy    <       0.00093858 Ry

     iteration #  7     ecut=    30.00 Ry     beta= 0.30
     Davidson diagonalization with overlap
     ethr =  1.30E-06,  avg # of iterations =  4.0

     negative rho (up, down):  4.191E-08 0.000E+00

     total cpu time spent up to now is        4.6 secs

     total energy              =    -243.83748618 Ry
     Harris-Foulkes estimate   =    -243.83747895 Ry
     estimated scf accuracy    <       0.00015875 Ry

     iteration #  8     ecut=    30.00 Ry     beta= 0.30
     Davidson diagonalization with overlap
     ethr =  2.20E-07,  avg # of iterations =  2.0

     total cpu time spent up to now is        4.8 secs

     End of self-consistent calculation

          k = 0.0000 0.0000 0.0000 (  3310 PWs)   bands (ev):

   -18.2139 -17.9288 -17.5174 -14.3218 -14.1729 -13.7562 -11.6625 -10.9666
   -10.6017  -9.0332  -8.6221  -8.4146  -8.1950  -7.9977  -7.7712  -6.4326
    -5.9495  -5.7078  -5.5889  -5.1972  -5.0473  -4.7213  -4.3831  -4.2519
    -4.0754  -3.9292  -3.4399  -2.4475  -2.4070  -2.0726  -1.7051  -1.4402
    -1.1912  -0.5234  -0.2837   0.2827   1.9331   2.5378   3.0411   3.1362
     4.8196   4.9956   5.3787   5.4887   5.5967   5.8315   5.9922   6.2551
     6.6298   6.9454   7.0252   7.5009   7.7477   7.9197   8.1932   8.4811
     8.5890   8.6974   9.1319   9.3143   9.5247   9.8713  10.2377  10.4816
    10.8111  11.0314  11.2221  11.2432  11.5422  11.7846  11.9307  12.2210
    12.3878  12.6256  12.8404  12.8439  13.0330  13.1434  13.6168  13.8437
    14.0198  14.2193  14.2955  14.5067  14.5793  14.7107  14.8438  14.9048
    15.2326  15.4352  15.5644  15.7631  15.8673  16.0206  16.1358  16.3670
    16.6759  16.8419  16.9394  17.0588

     the Fermi energy is     1.1013 ev

!    total energy              =    -243.83755124 Ry
     Harris-Foulkes estimate   =    -243.83751407 Ry
     estimated scf accuracy    <       0.00002388 Ry

     The total energy is the sum of the following terms:

     one-electron contribution =    -342.69089359 Ry
     hartree contribution      =     195.54755610 Ry
     xc contribution           =     -93.38733107 Ry
     ewald contribution        =      -3.30688270 Ry
     smearing contrib. (-TS)   =      -0.00000000 Ry

     convergence has been achieved in   8 iterations

     Writing output data file x0.save
 
     init_run     :      0.39s CPU      0.45s WALL (       1 calls)
     electrons    :      2.14s CPU      2.23s WALL (       1 calls)

     Called by init_run:
     wfcinit      :      0.03s CPU      0.04s WALL (       1 calls)
     potinit      :      0.08s CPU      0.08s WALL (       1 calls)

     Called by electrons:
     c_bands      :      1.07s CPU      1.09s WALL (       8 calls)
     sum_band     :      0.49s CPU      0.50s WALL (       8 calls)
     v_of_rho     :      0.25s CPU      0.26s WALL (       9 calls)
     newd         :      0.31s CPU      0.33s WALL (       9 calls)
     mix_rho      :      0.03s CPU      0.03s WALL (       8 calls)

     Called by c_bands:
     init_us_2    :      0.00s CPU      0.01s WALL (      17 calls)
     regterg      :      1.06s CPU      1.08s WALL (       8 calls)

     Called by sum_band:
     sum_band:bec :      0.00s CPU      0.00s WALL (       8 calls)
     addusdens    :      0.34s CPU      0.34s WALL (       8 calls)

     Called by *egterg:
     h_psi        :      0.48s CPU      0.50s WALL (      38 calls)
     s_psi        :      0.01s CPU      0.01s WALL (      38 calls)
     g_psi        :      0.00s CPU      0.00s WALL (      29 calls)
     rdiaghg      :      0.46s CPU      0.46s WALL (      37 calls)

     Called by h_psi:
     h_psi:pot    :      0.48s CPU      0.50s WALL (      38 calls)
     h_psi:calbec :      0.02s CPU      0.02s WALL (      38 calls)
     vloc_psi     :      0.45s CPU      0.46s WALL (      38 calls)
     add_vuspsi   :      0.01s CPU      0.01s WALL (      38 calls)

     General routines
     calbec       :      0.03s CPU      0.03s WALL (      46 calls)
     fft          :      0.26s CPU      0.27s WALL (     140 calls)
     ffts         :      0.01s CPU      0.01s WALL (      17 calls)
     fftw         :      0.48s CPU      0.49s WALL (    2460 calls)
     interpolate  :      0.04s CPU      0.04s WALL (      17 calls)
 
     Parallel routines
     fft_scatt_xy :      0.04s CPU      0.04s WALL (    2617 calls)
     fft_scatt_yz :      0.15s CPU      0.15s WALL (    2617 calls)
 
     PWSCF        :     4.01s CPU         5.59s WALL

 
   This run was terminated on:  18:57:43  22Jun2021            

=------------------------------------------------------------------------------=
   JOB DONE.
=------------------------------------------------------------------------------=
