# Projected DOS for atomic kind H at iteration step i = 1, E(Fermi) =    -0.122428 a.u.
#     MO Eigenvalue [a.u.]      Occupation                 s                py                pz                px
       1         -0.932024        2.000000        0.00205756        0.00144153        0.00027294        0.00132943
       2         -0.931970        2.000000        0.00206257        0.00144674        0.00027289        0.00133584
       3         -0.930602        2.000000        0.00210273        0.00136075        0.00032362        0.00143829
       4         -0.930518        2.000000        0.00209908        0.00135297        0.00032013        0.00144316
       5         -0.893457        2.000000        0.00194041        0.00139441        0.00006747        0.00130156
       6         -0.893432        2.000000        0.00194644        0.00138962        0.00006660        0.00131304
       7         -0.892815        2.000000        0.00201773        0.00130752        0.00023053        0.00136491
       8         -0.892754        2.000000        0.00202438        0.00129929        0.00022677        0.00136635
       9         -0.891957        2.000000        0.00192765        0.00132520        0.00020156        0.00123499
      10         -0.891888        2.000000        0.00193702        0.00133196        0.00020380        0.00124081
      11         -0.891349        2.000000        0.00199929        0.00126575        0.00022566        0.00133524
      12         -0.891248        2.000000        0.00199982        0.00127240        0.00022417        0.00132861
      13         -0.853308        2.000000        0.00000309        0.00014889        0.00010506        0.00012711
      14         -0.849060        2.000000        0.00003040        0.00007885        0.00017796        0.00010207
      15         -0.835592        2.000000        0.00000318        0.00004049        0.00002357        0.00002189
      16         -0.835442        2.000000        0.00000411        0.00003177        0.00006227        0.00003504
      17         -0.835243        2.000000        0.00000317        0.00000620        0.00000996        0.00001968
      18         -0.831319        2.000000        0.00001163        0.00005045        0.00005517        0.00008701
      19         -0.831096        2.000000        0.00000227        0.00001775        0.00002494        0.00000912
      20         -0.831031        2.000000        0.00000911        0.00002968        0.00007683        0.00005014
      21         -0.819837        2.000000        0.00242451        0.00140638        0.00016067        0.00107340
      22         -0.819727        2.000000        0.00242177        0.00119544        0.00015806        0.00127593
      23         -0.819632        2.000000        0.00272683        0.00129992        0.00008839        0.00152617
      24         -0.819526        2.000000        0.00271138        0.00150591        0.00006207        0.00132026
      25         -0.819410        2.000000        0.00179496        0.00108114        0.00005640        0.00102200
      26         -0.819308        2.000000        0.00179706        0.00113019        0.00008193        0.00096503
      27         -0.818846        2.000000        0.00228814        0.00115393        0.00013952        0.00125368
      28         -0.818828        2.000000        0.00225724        0.00108385        0.00014050        0.00129595
      29         -0.800109        2.000000        0.00000268        0.00000337        0.00000598        0.00000219
      30         -0.799967        2.000000        0.00000691        0.00001358        0.00002503        0.00000740
      31         -0.799879        2.000000        0.00000616        0.00000293        0.00000761        0.00000880
      32         -0.799845        2.000000        0.00000596        0.00000316        0.00000929        0.00000572
      33         -0.799760        2.000000        0.00000849        0.00000120        0.00000271        0.00000433
      34         -0.795858        2.000000        0.00008701        0.00005033        0.00000561        0.00006316
      35         -0.795758        2.000000        0.00049350        0.00037981        0.00007101        0.00018917
      36         -0.795648        2.000000        0.00002427        0.00000652        0.00001547        0.00003999
      37         -0.795535        2.000000        0.00008458        0.00004793        0.00002388        0.00003947
      38         -0.795510        2.000000        0.00008004        0.00006923        0.00001210        0.00001920
      39         -0.792237        2.000000        0.03886591        0.01440774        0.00062113        0.01327415
      40         -0.792062        2.000000        0.03889509        0.01444048        0.00062351        0.01326131
      41         -0.789299        2.000000        0.03415501        0.01769546        0.00079734        0.00873794
      42         -0.789147        2.000000        0.03421536        0.01137496        0.00083123        0.01513270
      43         -0.789131        2.000000        0.03426614        0.01472364        0.00079143        0.01168373
      44         -0.788952        2.000000        0.03426057        0.00843198        0.00083862        0.01800139
      45         -0.776771        2.000000        0.00236119        0.00099619        0.00004464        0.00088889
      46         -0.776645        2.000000        0.00247873        0.00102994        0.00004614        0.00093783
      47         -0.775661        2.000000        0.00150973        0.00047524        0.00002914        0.00056008
      48         -0.775575        2.000000        0.00141531        0.00043885        0.00002707        0.00052373
      49         -0.768082        2.000000        0.03918045        0.01334839        0.00019703        0.01289743
      50         -0.767919        2.000000        0.03925120        0.01349460        0.00019271        0.01278069
      51         -0.763238        2.000000        0.00000897        0.00000762        0.00001251        0.00000544
      52         -0.763180        2.000000        0.00000954        0.00000191        0.00000139        0.00000859
      53         -0.763096        2.000000        0.00000447        0.00000199        0.00000368        0.00000149
      54         -0.761730        2.000000        0.04092977        0.02003532        0.00014136        0.00725383
      55         -0.761643        2.000000        0.04112793        0.01041458        0.00017006        0.01699408
      56         -0.761598        2.000000        0.04182637        0.01590510        0.00015682        0.01185756
      57         -0.761413        2.000000        0.04124310        0.00834305        0.00015300        0.01908888
      58         -0.758894        2.000000        0.00068143        0.00021933        0.00000879        0.00017672
      59         -0.758816        2.000000        0.00166670        0.00063488        0.00001314        0.00034796
      60         -0.758765        2.000000        0.00013482        0.00004714        0.00000491        0.00003139
      61         -0.731618        2.000000        0.00000586        0.00000609        0.00000601        0.00000338
      62         -0.731551        2.000000        0.00000725        0.00000175        0.00000112        0.00000496
      63         -0.731542        2.000000        0.00000670        0.00000285        0.00000642        0.00000182
      64         -0.731405        2.000000        0.00000470        0.00000166        0.00000129        0.00000398
      65         -0.728591        2.000000        0.00462531        0.00396862        0.00132197        0.00389962
      66         -0.728467        2.000000        0.00450009        0.00384307        0.00128724        0.00381602
      67         -0.727523        2.000000        0.00017294        0.00015817        0.00003172        0.00016783
      68         -0.727358        2.000000        0.00005499        0.00003132        0.00002045        0.00005100
      69         -0.727283        2.000000        0.00011469        0.00007924        0.00003937        0.00006893
      70         -0.727178        2.000000        0.00000276        0.00000172        0.00000380        0.00000538
      71         -0.714160        2.000000        0.00956498        0.00477359        0.00123107        0.00477731
      72         -0.714018        2.000000        0.00958124        0.00478877        0.00119231        0.00482254
      73         -0.713974        2.000000        0.00960529        0.00488477        0.00110805        0.00481649
      74         -0.713846        2.000000        0.00962932        0.00487443        0.00114864        0.00478239
      75         -0.710647        2.000000        0.04045367        0.01082564        0.00074104        0.00891910
      76         -0.710414        2.000000        0.04042624        0.01133714        0.00074824        0.00837387
      77         -0.709352        2.000000        0.03793615        0.00921959        0.00087380        0.00975464
      78         -0.709093        2.000000        0.03804933        0.01001211        0.00086699        0.00898861
      79         -0.709030        2.000000        0.03781570        0.00911145        0.00084632        0.00988287
      80         -0.708722        2.000000        0.03794367        0.00772206        0.00086528        0.01128077
      81         -0.690486        2.000000        0.00356524        0.00238037        0.00095438        0.00242306
      82         -0.690176        2.000000        0.00350291        0.00239753        0.00097755        0.00244976
      83         -0.685290        2.000000        0.00001000        0.00000442        0.00000388        0.00000371
      84         -0.685286        2.000000        0.00000275        0.00000098        0.00000058        0.00000206
      85         -0.685218        2.000000        0.00000685        0.00000109        0.00000266        0.00000483
      86         -0.685124        2.000000        0.00000407        0.00000423        0.00000277        0.00000215
      87         -0.684999        2.000000        0.00000648        0.00000135        0.00000221        0.00000132
      88         -0.683601        2.000000        0.05597023        0.01103241        0.00020040        0.01067223
      89         -0.683476        2.000000        0.05584097        0.01103807        0.00019526        0.01062363
      90         -0.681043        2.000000        0.00018367        0.00003628        0.00000898        0.00005177
      91         -0.681010        2.000000        0.00050733        0.00008857        0.00001712        0.00010117
      92         -0.680968        2.000000        0.00016057        0.00002972        0.00000463        0.00003350
      93         -0.680923        2.000000        0.00005795        0.00001086        0.00000517        0.00001955
      94         -0.680886        2.000000        0.00007799        0.00001758        0.00000255        0.00002212
      95         -0.671186        2.000000        0.07807623        0.02055867        0.00023877        0.00693988
      96         -0.671054        2.000000        0.07784650        0.02036985        0.00023952        0.00705234
      97         -0.671003        2.000000        0.07850078        0.00742859        0.00027537        0.02016383
      98         -0.670817        2.000000        0.07888617        0.00699117        0.00026476        0.02071960
      99         -0.669556        2.000000        0.00172708        0.00327885        0.00104671        0.00197550
     100         -0.669467        2.000000        0.00255918        0.00194674        0.00095731        0.00364854
     101         -0.669433        2.000000        0.00230066        0.00197584        0.00095461        0.00355263
     102         -0.669249        2.000000        0.00150731        0.00340053        0.00105238        0.00178728
     103         -0.668170        2.000000        0.00001184        0.00000236        0.00000104        0.00000822
     104         -0.668110        2.000000        0.00000527        0.00000290        0.00000051        0.00000296
     105         -0.668037        2.000000        0.00001903        0.00000793        0.00000588        0.00000666
     106         -0.667849        2.000000        0.00000498        0.00000192        0.00000098        0.00000439
     107         -0.666308        2.000000        0.00787599        0.00358504        0.00102679        0.00343589
     108         -0.666240        2.000000        0.00779386        0.00357404        0.00103019        0.00341214
     109         -0.663979        2.000000        0.00006078        0.00001380        0.00000769        0.00001309
     110         -0.663901        2.000000        0.00001699        0.00001195        0.00000595        0.00000747
     111         -0.663817        2.000000        0.00016912        0.00004223        0.00001359        0.00003195
     112         -0.663800        2.000000        0.00004664        0.00000883        0.00000983        0.00000560
     113         -0.639014        2.000000        0.01732442        0.00216848        0.00157343        0.00216409
     114         -0.637539        2.000000        0.01994648        0.00249646        0.00181185        0.00261937
     115         -0.637237        2.000000        0.03722284        0.00886920        0.00118544        0.00538185
     116         -0.637147        2.000000        0.03725676        0.00887125        0.00118835        0.00540149
     117         -0.636995        2.000000        0.03741403        0.00559523        0.00106793        0.00884817
     118         -0.636882        2.000000        0.03729936        0.00560471        0.00106954        0.00879983
     119         -0.635958        2.000000        0.02865083        0.00493004        0.00031840        0.00487082
     120         -0.635908        2.000000        0.02885135        0.00494138        0.00031194        0.00491672
     121         -0.617310        2.000000        0.03590499        0.00076460        0.01228886        0.00061739
     122         -0.616829        2.000000        0.01667862        0.00101669        0.00398749        0.00083031
     123         -0.616606        2.000000        0.01060291        0.00106459        0.00139188        0.00096230
     124         -0.616565        2.000000        0.00802832        0.00102360        0.00033469        0.00105023
     125         -0.616203        2.000000        0.04145332        0.00059077        0.01438053        0.00075399
     126         -0.615739        2.000000        0.07262711        0.00023598        0.02706946        0.00043440
     127         -0.614648        2.000000        0.00001326        0.00000309        0.00000231        0.00000348
     128         -0.614338        2.000000        0.00000577        0.00000147        0.00000193        0.00000840
     129         -0.614091        2.000000        0.00001898        0.00000836        0.00000238        0.00000530
     130         -0.613912        2.000000        0.00000145        0.00000084        0.00000125        0.00000379
     131         -0.613836        2.000000        0.00000078        0.00000062        0.00000173        0.00000111
     132         -0.610360        2.000000        0.00001980        0.00000189        0.00000779        0.00000207
     133         -0.610130        2.000000        0.00003465        0.00000534        0.00001289        0.00001316
     134         -0.609986        2.000000        0.00007665        0.00000560        0.00002664        0.00000705
     135         -0.609950        2.000000        0.00001786        0.00000334        0.00001073        0.00000397
     136         -0.609796        2.000000        0.00001089        0.00000149        0.00000324        0.00000144
     137         -0.608771        2.000000        0.01050176        0.00030947        0.00335335        0.00032459
     138         -0.605752        2.000000        0.01220128        0.00139858        0.00004444        0.00140957
     139         -0.605717        2.000000        0.02613254        0.00307935        0.00009828        0.00302567
     140         -0.605695        2.000000        0.03539138        0.00418247        0.00013638        0.00412335
     141         -0.605613        2.000000        0.01253584        0.00148795        0.00005110        0.00146406
     142         -0.605520        2.000000        0.00165879        0.00019392        0.00000618        0.00019072
     143         -0.601458        2.000000        0.00006146        0.00000656        0.00000793        0.00000693
     144         -0.601397        2.000000        0.00001577        0.00000358        0.00000268        0.00000356
     145         -0.601385        2.000000        0.00002181        0.00000342        0.00000504        0.00000460
     146         -0.587840        2.000000        0.00725010        0.00141840        0.00046586        0.00196755
     147         -0.587807        2.000000        0.00745909        0.00247437        0.00045639        0.00088704
     148         -0.587740        2.000000        0.00668255        0.00077640        0.00063937        0.00251295
     149         -0.587687        2.000000        0.00673192        0.00186853        0.00064235        0.00142499
     150         -0.585577        2.000000        0.01187308        0.00121226        0.00008066        0.00109747
     151         -0.585494        2.000000        0.01184075        0.00142377        0.00007339        0.00088211
     152         -0.585244        2.000000        0.01102307        0.00096377        0.00007198        0.00137671
     153         -0.585186        2.000000        0.01097948        0.00120749        0.00007188        0.00116580
     154         -0.580077        2.000000        0.02136559        0.00250342        0.00172177        0.00245228
     155         -0.576426        2.000000        0.02144375        0.00229754        0.00142961        0.00227243
     156         -0.566431        2.000000        0.00000166        0.00000037        0.00000021        0.00000066
     157         -0.566368        2.000000        0.00000171        0.00000166        0.00000225        0.00000046
     158         -0.566321        2.000000        0.00000072        0.00000047        0.00000015        0.00000129
     159         -0.562312        2.000000        0.00000888        0.00000238        0.00000689        0.00000256
     160         -0.562200        2.000000        0.00000763        0.00000078        0.00000273        0.00000182
     161         -0.562156        2.000000        0.00000837        0.00000085        0.00000077        0.00000115
     162         -0.545297        2.000000        0.05530494        0.00272541        0.00022998        0.00465121
     163         -0.545217        2.000000        0.05575842        0.00506673        0.00023878        0.00234745
     164         -0.545198        2.000000        0.05581483        0.00474046        0.00023945        0.00267112
     165         -0.545128        2.000000        0.05537997        0.00231930        0.00023323        0.00505935
     166         -0.542484        2.000000        0.03265721        0.00215569        0.00028259        0.00197444
     167         -0.541041        2.000000        0.03756308        0.00244130        0.00023452        0.00220726
     168         -0.535447        2.000000        0.02323632        0.00491343        0.00075747        0.00155907
     169         -0.535323        2.000000        0.02365381        0.00555777        0.00078215        0.00090163
     170         -0.535089        2.000000        0.02782504        0.00144845        0.00104722        0.00472649
     171         -0.534982        2.000000        0.02657372        0.00082954        0.00104963        0.00534363
     172         -0.530100        2.000000        0.06205232        0.00549073        0.00075818        0.00550389
     173         -0.530003        2.000000        0.04845258        0.00434269        0.00062248        0.00421249
     174         -0.529961        2.000000        0.04553966        0.00378281        0.00072875        0.00363034
     175         -0.529927        2.000000        0.02049369        0.00174733        0.00027118        0.00177502
     176         -0.529801        2.000000        0.02492327        0.00197425        0.00037998        0.00194201
     177         -0.529780        2.000000        0.00253948        0.00019725        0.00003995        0.00019038
     178         -0.529710        2.000000        0.04104697        0.00326013        0.00062656        0.00327374
     179         -0.529639        2.000000        0.01486812        0.00114001        0.00022001        0.00114006
     180         -0.529553        2.000000        0.00086135        0.00006834        0.00001161        0.00005669
     181         -0.526174        2.000000        0.00003761        0.00000202        0.00000178        0.00000345
     182         -0.525915        2.000000        0.00006565        0.00000442        0.00000398        0.00000695
     183         -0.525762        2.000000        0.00004241        0.00001234        0.00000338        0.00000813
     184         -0.525652        2.000000        0.00003111        0.00000488        0.00000454        0.00000579
     185         -0.525570        2.000000        0.00006973        0.00001143        0.00000467        0.00000672
     186         -0.525465        2.000000        0.00001201        0.00000203        0.00000132        0.00000235
     187         -0.525389        2.000000        0.00006576        0.00000348        0.00000132        0.00000634
     188         -0.525194        2.000000        0.00002908        0.00000427        0.00000194        0.00000130
     189         -0.521579        2.000000        0.00008049        0.00001448        0.00001244        0.00002337
     190         -0.521502        2.000000        0.00002825        0.00000505        0.00000720        0.00000537
     191         -0.521268        2.000000        0.00003126        0.00000986        0.00000353        0.00000483
     192         -0.518876        2.000000        0.00275748        0.00411738        0.00208385        0.00415763
     193         -0.518775        2.000000        0.00272497        0.00415900        0.00209388        0.00410453
     194         -0.509420        2.000000        0.00001469        0.00000106        0.00000095        0.00000102
     195         -0.508301        2.000000        0.08774348        0.00467187        0.00081620        0.00471723
     196         -0.505681        2.000000        0.08549911        0.00449350        0.00095423        0.00442746
     197         -0.505171        2.000000        0.00281846        0.00015053        0.00002965        0.00014625
     198         -0.501196        2.000000        0.12888281        0.00564792        0.00047381        0.00519565
     199         -0.499893        2.000000        0.05540515        0.00245034        0.00048875        0.00362376
     200         -0.499811        2.000000        0.05071056        0.00312868        0.00038662        0.00261674
     201         -0.499670        2.000000        0.05217258        0.00373048        0.00028798        0.00240623
     202         -0.499643        2.000000        0.05082365        0.00286911        0.00028368        0.00312741
     203         -0.499312        2.000000        0.11712635        0.00432447        0.00024667        0.00590784
     204         -0.498329        2.000000        0.00656093        0.00121238        0.00023070        0.00078807
     205         -0.498264        2.000000        0.00523404        0.00094705        0.00021001        0.00088929
     206         -0.498167        2.000000        0.00671481        0.00107017        0.00027347        0.00093307
     207         -0.498148        2.000000        0.00708931        0.00108673        0.00023519        0.00090199
     208         -0.495721        2.000000        0.00013048        0.00034287        0.00008081        0.00023803
     209         -0.495699        2.000000        0.00022722        0.00041828        0.00008529        0.00015375
     210         -0.495386        2.000000        0.00040398        0.00015117        0.00009668        0.00035863
     211         -0.495372        2.000000        0.00050299        0.00021638        0.00010031        0.00028265
     212         -0.470318        2.000000        0.00426180        0.00249209        0.00099033        0.00236442
     213         -0.470301        2.000000        0.00422948        0.00249092        0.00098850        0.00235986
     214         -0.467275        2.000000        0.00038540        0.00002452        0.00000691        0.00001516
     215         -0.467142        2.000000        0.00057137        0.00003286        0.00001092        0.00002290
     216         -0.467122        2.000000        0.00013932        0.00000735        0.00000295        0.00000997
     217         -0.467037        2.000000        0.00107382        0.00008116        0.00001565        0.00003200
     218         -0.466702        2.000000        0.06721198        0.00472197        0.00076421        0.00211218
     219         -0.466633        2.000000        0.06767006        0.00521542        0.00082427        0.00162646
     220         -0.466555        2.000000        0.06683523        0.00218837        0.00099683        0.00449812
     221         -0.466413        2.000000        0.06785079        0.00149680        0.00095170        0.00528050
     222         -0.463206        2.000000        0.00036762        0.00001675        0.00001084        0.00001337
     223         -0.462996        2.000000        0.00025331        0.00001710        0.00000644        0.00000984
     224         -0.462939        2.000000        0.00018662        0.00000428        0.00001191        0.00000760
     225         -0.462891        2.000000        0.00014899        0.00000791        0.00000532        0.00000694
     226         -0.460598        2.000000        0.04476929        0.00276299        0.00069620        0.00258839
     227         -0.460467        2.000000        0.04501508        0.00271647        0.00073946        0.00255933
     228         -0.460074        2.000000        0.04690600        0.00250829        0.00072557        0.00266597
     229         -0.459987        2.000000        0.04896157        0.00240473        0.00089054        0.00252125
     230         -0.459804        2.000000        0.06310929        0.00123432        0.00195732        0.00138270
     231         -0.456568        2.000000        0.10296775        0.00063604        0.00422126        0.00062680
     232         -0.448830        2.000000        0.07928956        0.00053754        0.00277642        0.00053973
     233         -0.441989        2.000000        0.00000655        0.00000122        0.00000046        0.00000182
     234         -0.441771        2.000000        0.00000350        0.00000052        0.00000048        0.00000112
     235         -0.441703        2.000000        0.00000086        0.00000027        0.00000053        0.00000069
     236         -0.441623        2.000000        0.00000480        0.00000047        0.00000069        0.00000261
     237         -0.441537        2.000000        0.00000560        0.00000060        0.00000119        0.00000078
     238         -0.437745        2.000000        0.00009607        0.00000367        0.00000361        0.00000263
     239         -0.437663        2.000000        0.00016591        0.00000550        0.00000724        0.00000929
     240         -0.437634        2.000000        0.00002126        0.00000196        0.00000265        0.00000162
     241         -0.437565        2.000000        0.00007473        0.00000344        0.00000316        0.00000269
     242         -0.437481        2.000000        0.00038372        0.00000486        0.00001241        0.00000578
     243         -0.436386        2.000000        0.06260528        0.00071457        0.00179707        0.00072902
     244         -0.433150        2.000000        0.00077811        0.00003923        0.00003012        0.00003407
     245         -0.433106        2.000000        0.00080156        0.00003895        0.00003096        0.00003574
     246         -0.429997        2.000000        0.00000400        0.00000080        0.00000077        0.00000224
     247         -0.429906        2.000000        0.00002312        0.00000157        0.00000336        0.00000231
     248         -0.429793        2.000000        0.00076018        0.00008282        0.00010740        0.00009202
     249         -0.429723        2.000000        0.00075272        0.00008458        0.00010590        0.00008932
     250         -0.429640        2.000000        0.00003140        0.00000280        0.00000548        0.00000392
     251         -0.427060        2.000000        0.06438414        0.00086058        0.00209902        0.00065312
     252         -0.425840        2.000000        0.00014621        0.00000768        0.00000503        0.00001738
     253         -0.425671        2.000000        0.00017406        0.00000340        0.00001066        0.00000842
     254         -0.425566        2.000000        0.00004616        0.00000623        0.00000395        0.00000229
     255         -0.423980        2.000000        0.07767233        0.00345388        0.00246811        0.00267642
     256         -0.422358        2.000000        0.02969311        0.00164112        0.00143660        0.00315686
     257         -0.422210        2.000000        0.02987729        0.00158903        0.00144129        0.00317197
     258         -0.422146        2.000000        0.02518951        0.00262666        0.00127184        0.00212083
     259         -0.422067        2.000000        0.02532546        0.00266093        0.00127299        0.00209339