----- GAMESS execution script 'rungms' -----
This job is running on host compute-0-18
under operating system Linux at Mon Jun 21 09:53:51 -03 2021
PBS has assigned the following compute nodes to this run:
compute-0-18
Available scratch disk space (Kbyte units) at beginning of the job is
Filesystem              1K-blocks    Used Available Use% Mounted on
/dev/mapper/system-root 462859452 3112360 459747092   1% /
GAMESS temporary binary files will be written to /var/tmp/pbs.35848.masternode2
GAMESS supplementary output files will be written to /tmp
Copying input file benzene_2.inp to your run's scratch directory...
cp benzene_2.inp /var/tmp/pbs.35848.masternode2/benzene_2.F05
unset echo
/home/molecula1/maplima/agf18/GAMESS/gamess/ddikick.x /home/molecula1/maplima/agf18/GAMESS/gamess/gamess.00.x benzene_2 -ddi 1 1 compute-0-18 -scr /var/tmp/pbs.35848.masternode2

 Distributed Data Interface kickoff program.
 Initiating 1 compute processes on 1 nodes to run the following command:
 /home/molecula1/maplima/agf18/GAMESS/gamess/gamess.00.x benzene_2 

          ******************************************************
          *         GAMESS VERSION = 02 AUG 2018 (R2)         *
          *             FROM IOWA STATE UNIVERSITY             *
          * M.W.SCHMIDT, K.K.BALDRIDGE, J.A.BOATZ, S.T.ELBERT, *
          *   M.S.GORDON, J.H.JENSEN, S.KOSEKI, N.MATSUNAGA,   *
          *          K.A.NGUYEN, S.J.SU, T.L.WINDUS,           *
          *       TOGETHER WITH M.DUPUIS, J.A.MONTGOMERY       *
          *         J.COMPUT.CHEM.  14, 1347-1363(1993)        *
          **************** 64 BIT LINUX VERSION ****************

  SINCE 1993, STUDENTS AND POSTDOCS WORKING AT IOWA STATE UNIVERSITY
  AND ALSO IN THEIR VARIOUS JOBS AFTER LEAVING ISU HAVE MADE IMPORTANT
  CONTRIBUTIONS TO THE CODE:
     IVANA ADAMOVIC, CHRISTINE AIKENS, YURI ALEXEEV, POOJA ARORA,
     ANDREY ASADCHEV, ROB BELL, PRADIPTA BANDYOPADHYAY, JONATHAN BENTZ,
     BRETT BODE, KURT BRORSEN, CALEB CARLIN, GALINA CHABAN, WEI CHEN,
     CHEOL HO CHOI, PAUL DAY, ALBERT DEFUSCO, NUWAN DESILVA, TIM DUDLEY,
     DMITRI FEDOROV, ALEX FINDLATER, GRAHAM FLETCHER, MARK FREITAG,
     KURT GLAESEMANN, ANASTASIA GUININA,
     DAN KEMP, GRANT MERRILL, NORIYUKI MINEZAWA, JONATHAN MULLIN,
     TAKESHI NAGATA, SEAN NEDD, HEATHER NETZLOFF, BOSILJKA NJEGIC, RYAN OLSON,
     MIKE PAK, BUU PHAM,
     SPENCER PRUITT, LUKE ROSKOP, JIM SHOEMAKER, LYUDMILA SLIPCHENKO,
     TONY SMITH, SAROM SOK LEANG, JIE SONG, TETSUYA TAKETSUGU, SIMON WEBB,
     PENG XU, SOOHAENG YOO, FEDERICO ZAHARIEV

  ADDITIONAL CODE HAS BEEN PROVIDED BY COLLABORATORS IN OTHER GROUPS:
     IOWA STATE UNIVERSITY:
          JOE IVANIC, AARON WEST, LAIMUTIS BYTAUTAS, KLAUS RUEDENBERG
     UNIVERSITY OF TOKYO: KIMIHIKO HIRAO, TAKAHITO NAKAJIMA,
          TAKAO TSUNEDA, MUNEAKI KAMIYA, SUSUMU YANAGISAWA,
          KIYOSHI YAGI, MAHITO CHIBA, SEIKEN TOKURA, NAOAKI KAWAKAMI
     UNIVERSITY OF AARHUS: FRANK JENSEN
     UNIVERSITY OF IOWA: VISVALDAS KAIRYS, HUI LI
     NATIONAL INST. OF STANDARDS AND TECHNOLOGY: WALT STEVENS, DAVID GARMER
     UNIVERSITY OF PISA: BENEDETTA MENNUCCI, JACOPO TOMASI
     UNIVERSITY OF MEMPHIS: HENRY KURTZ, PRAKASHAN KORAMBATH
     UNIVERSITY OF ALBERTA: TOBY ZENG, MARIUSZ KLOBUKOWSKI
     UNIVERSITY OF NEW ENGLAND: MARK SPACKMAN
     MIE UNIVERSITY: HIROAKI UMEDA
     NAT. INST. OF ADVANCED INDUSTRIAL SCIENCE AND TECHNOLOGY: KAZUO KITAURA
     MICHIGAN STATE UNIVERSITY:
          KAROL KOWALSKI, MARTA WLOCH, JEFFREY GOUR, JESSE LUTZ,
          WEI LI, JUN SHEN, J. EMILIANO DEUSTUA, PIOTR PIECUCH
     UNIVERSITY OF MINNESOTA:
          YINAN SHU
     UNIVERSITY OF SILESIA: MONIKA MUSIAL, STANISLAW KUCHARSKI
     FACULTES UNIVERSITAIRES NOTRE-DAME DE LA PAIX:
          OLIVIER QUINET, BENOIT CHAMPAGNE
     UNIVERSITY OF CALIFORNIA - SANTA BARBARA: BERNARD KIRTMAN
     INSTITUTE FOR MOLECULAR SCIENCE:
          KAZUYA ISHIMURA, MICHIO KATOUDA, AND SHIGERU NAGASE
     UNIVERSITY OF NOTRE DAME: ANNA POMOGAEVA, DAN CHIPMAN
     KYUSHU UNIVERSITY:
          HARUYUKI NAKANO,
          FENG LONG GU, JACEK KORCHOWIEC, MARCIN MAKOWSKI, AND YURIKO AOKI,
          HIROTOSHI MORI AND EISAKU MIYOSHI
     PENNSYLVANIA STATE UNIVERSITY:
          TZVETELIN IORDANOV, CHET SWALINA, JONATHAN SKONE,
          SHARON HAMMES-SCHIFFER
     WASEDA UNIVERSITY:
          MASATO KOBAYASHI, TOMOKO AKAMA, TSUGUKI TOUMA,
          TAKESHI YOSHIKAWA, YASUHIRO IKABATA, JUNJI SEINO,
          YUYA NAKAJIMA, HIROMI NAKAI
     NANJING UNIVERSITY: SHUHUA LI
     UNIVERSITY OF NEBRASKA:
          PEIFENG SU, DEJUN SI, NANDUN THELLAMUREGE, YALI WANG, HUI LI
     UNIVERSITY OF ZURICH: ROBERTO PEVERATI, KIM BALDRIDGE
     N. COPERNICUS UNIVERSITY AND JACKSON STATE UNIVERSITY:
          MARIA BARYSZ
     UNIVERSITY OF COPENHAGEN: Jimmy Kromann, CASPER STEINMANN
     TOKYO INSTITUTE OF TECHNOLOGY: HIROYA NAKATA
     NAGOYA UNIVERSITY: YOSHIO NISHIMOTO, STEPHAN IRLE
     MOSCOW STATE UNIVERSITY: VLADIMIR MIRONOV

 EXECUTION OF GAMESS BEGUN Mon Jun 21 09:53:51 2021

            ECHO OF THE FIRST FEW INPUT CARDS -
 INPUT CARD> $CONTRL SCFTYP=RHF COORD=UNIQUE UNITS=BOHR ISPHER=1 $END                       
 INPUT CARD> $SYSTEM MEMORY=300000000 TIMLIM=100000000 $END                                 
 INPUT CARD> $BASIS GBASIS=ACCD $END                                                        
 INPUT CARD> $SCF DIRSCF=.TRUE. MVOQ=0 $END                                                 
 INPUT CARD> $DATA                                                                          
 INPUT CARD>...molecule's name:  C6H6                                                       
 INPUT CARD>Dnh 2                                                                           
 INPUT CARD>                                                                                
 INPUT CARD>C     6.0    -2.660620000   0.000000000   0.000000000                           
 INPUT CARD>C     6.0     1.330310000  -2.304170000   0.000000000                           
 INPUT CARD>H     1.0    -4.728470000   0.000000000   0.000000000                           
 INPUT CARD>H     1.0    -2.364220000  -4.094990000   0.000000000                           
 INPUT CARD> $END                                                                           
  300000000 WORDS OF MEMORY AVAILABLE

     BASIS OPTIONS
     -------------
     GBASIS=ACCD         IGAUSS=       0      POLAR=NONE    
     NDFUNC=       0     NFFUNC=       0     DIFFSP=       F
     NPFUNC=       0      DIFFS=       F     BASNAM=        


     RUN TITLE
     ---------
 ...molecule's name:  C6H6                                                       

 THE POINT GROUP OF THE MOLECULE IS DNH     
 THE ORDER OF THE PRINCIPAL AXIS IS     2

 ATOM      ATOMIC                      COORDINATES (BOHR)
           CHARGE         X                   Y                   Z
 C           6.0     2.6606200000       -0.0000000000        0.0000000000
 C           6.0    -2.6606200000        0.0000000000        0.0000000000
 C           6.0    -1.3303100000        2.3041700000        0.0000000000
 C           6.0     1.3303100000        2.3041700000        0.0000000000
 C           6.0    -1.3303100000       -2.3041700000        0.0000000000
 C           6.0     1.3303100000       -2.3041700000        0.0000000000
 H           1.0     4.7284700000       -0.0000000000        0.0000000000
 H           1.0    -4.7284700000        0.0000000000        0.0000000000
 H           1.0     2.3642200000        4.0949900000        0.0000000000
 H           1.0    -2.3642200000        4.0949900000        0.0000000000
 H           1.0     2.3642200000       -4.0949900000        0.0000000000
 H           1.0    -2.3642200000       -4.0949900000        0.0000000000

          INTERNUCLEAR DISTANCES (ANGS.)
          ------------------------------

                1 C          2 C          3 C          4 C          5 C     

   1 C       0.0000000    2.8158791 *  2.4386243 *  1.4079421 *  2.4386243 *
   2 C       2.8158791 *  0.0000000    1.4079421 *  2.4386243 *  1.4079421 *
   3 C       2.4386243 *  1.4079421 *  0.0000000    1.4079396 *  2.4386287 *
   4 C       1.4079421 *  2.4386243 *  1.4079396 *  0.0000000    2.8158842 *
   5 C       2.4386243 *  1.4079421 *  2.4386287 *  2.8158842 *  0.0000000  
   6 C       1.4079421 *  2.4386243 *  2.8158842 *  2.4386287 *  1.4079396 *
   7 H       1.0942592 *  3.9101383    3.4301959    2.1726378 *  3.4301959  
   8 H       3.9101383    1.0942592 *  2.1726378 *  3.4301959    2.1726378 *
   9 H       2.1726446 *  3.4301937    2.1726312 *  1.0942595 *  3.9101437  
  10 H       3.4301937    2.1726446 *  1.0942595 *  2.1726312 *  3.4302043  
  11 H       2.1726446 *  3.4301937    3.9101437    3.4302043    2.1726312 *
  12 H       3.4301937    2.1726446 *  3.4302043    3.9101437    1.0942595 *

                6 C          7 H          8 H          9 H         10 H     

   1 C       1.4079421 *  1.0942592 *  3.9101383    2.1726446 *  3.4301937  
   2 C       2.4386243 *  3.9101383    1.0942592 *  3.4301937    2.1726446 *
   3 C       2.8158842 *  3.4301959    2.1726378 *  2.1726312 *  1.0942595 *
   4 C       2.4386287 *  2.1726378 *  3.4301959    1.0942595 *  2.1726312 *
   5 C       1.4079396 *  3.4301959    2.1726378 *  3.9101437    3.4302043  
   6 C       0.0000000    2.1726378 *  3.4301959    3.4302043    3.9101437  
   7 H       2.1726378 *  0.0000000    5.0043975    2.5022095 *  4.3339324  
   8 H       3.4301959    5.0043975    0.0000000    4.3339324    2.5022095 *
   9 H       3.4302043    2.5022095 *  4.3339324    0.0000000    2.5021829 *
  10 H       3.9101437    4.3339324    2.5022095 *  2.5021829 *  0.0000000  
  11 H       1.0942595 *  2.5022095 *  4.3339324    4.3339511    5.0044032  
  12 H       2.1726312 *  4.3339324    2.5022095 *  5.0044032    4.3339511  

               11 H         12 H     

   1 C       2.1726446 *  3.4301937  
   2 C       3.4301937    2.1726446 *
   3 C       3.9101437    3.4302043  
   4 C       3.4302043    3.9101437  
   5 C       2.1726312 *  1.0942595 *
   6 C       1.0942595 *  2.1726312 *
   7 H       2.5022095 *  4.3339324  
   8 H       4.3339324    2.5022095 *
   9 H       4.3339511    5.0044032  
  10 H       5.0044032    4.3339511  
  11 H       0.0000000    2.5021829 *
  12 H       2.5021829 *  0.0000000  

  * ... LESS THAN  3.000


     ATOMIC BASIS SET
     ----------------
 THE CONTRACTED PRIMITIVE FUNCTIONS HAVE BEEN UNNORMALIZED
 THE CONTRACTED BASIS FUNCTIONS ARE NOW NORMALIZED TO UNITY

  SHELL TYPE  PRIMITIVE        EXPONENT          CONTRACTION COEFFICIENT(S)

 C         

     10   S       1          6665.0000000    0.000691583963
     10   S       2          1000.0000000    0.005325796153
     10   S       3           228.0000000    0.027060721042
     10   S       4            64.7100000    0.101656846141
     10   S       5            21.0600000    0.274574823617
     10   S       6             7.4950000    0.448294318924
     10   S       7             2.7970000    0.284902610715
     10   S       8             0.5215000    0.015194859206

     11   S       9          6665.0000000   -0.000293269653
     11   S      10          1000.0000000   -0.002318035474
     11   S      11           228.0000000   -0.011499786039
     11   S      12            64.7100000   -0.046826727010
     11   S      13            21.0600000   -0.128466168750
     11   S      14             7.4950000   -0.301266272463
     11   S      15             2.7970000   -0.255630702330
     11   S      16             0.5215000    1.093793361012

     12   S      17             0.1596000    1.000000000000

     13   P      18             9.4390000    0.056979251590
     13   P      19             2.0020000    0.313207211501
     13   P      20             0.5456000    0.760376741738

     14   P      21             0.1517000    1.000000000000

     15   D      22             0.5500000    1.000000000000

     16   S      23             0.0469000    1.000000000000

     17   P      24             0.0404100    1.000000000000

     18   D      25             0.1510000    1.000000000000

 C         

     46   S      26          6665.0000000    0.000691583963
     46   S      27          1000.0000000    0.005325796153
     46   S      28           228.0000000    0.027060721042
     46   S      29            64.7100000    0.101656846141
     46   S      30            21.0600000    0.274574823617
     46   S      31             7.4950000    0.448294318924
     46   S      32             2.7970000    0.284902610715
     46   S      33             0.5215000    0.015194859206

     47   S      34          6665.0000000   -0.000293269653
     47   S      35          1000.0000000   -0.002318035474
     47   S      36           228.0000000   -0.011499786039
     47   S      37            64.7100000   -0.046826727010
     47   S      38            21.0600000   -0.128466168750
     47   S      39             7.4950000   -0.301266272463
     47   S      40             2.7970000   -0.255630702330
     47   S      41             0.5215000    1.093793361012

     48   S      42             0.1596000    1.000000000000

     49   P      43             9.4390000    0.056979251590
     49   P      44             2.0020000    0.313207211501
     49   P      45             0.5456000    0.760376741738

     50   P      46             0.1517000    1.000000000000

     51   D      47             0.5500000    1.000000000000

     52   S      48             0.0469000    1.000000000000

     53   P      49             0.0404100    1.000000000000

     54   D      50             0.1510000    1.000000000000

 H         

     60   S      51            13.0100000    0.033498726390
     60   S      52             1.9620000    0.234800801174
     60   S      53             0.4446000    0.813682957883

     61   S      54             0.1220000    1.000000000000

     62   P      55             0.7270000    1.000000000000

     63   S      56             0.0297400    1.000000000000

     64   P      57             0.1410000    1.000000000000

 H         

     80   S      58            13.0100000    0.033498726390
     80   S      59             1.9620000    0.234800801174
     80   S      60             0.4446000    0.813682957883

     81   S      61             0.1220000    1.000000000000

     82   P      62             0.7270000    1.000000000000

     83   S      63             0.0297400    1.000000000000

     84   P      64             0.1410000    1.000000000000

 TOTAL NUMBER OF BASIS SET SHELLS             =   84
 NUMBER OF CARTESIAN GAUSSIAN BASIS FUNCTIONS =  204
 NOTE: THIS RUN WILL RESTRICT THE MO VARIATION SPACE TO SPHERICAL HARMONICS.
 THE NUMBER OF ORBITALS KEPT IN THE VARIATIONAL SPACE WILL BE PRINTED LATER.
 NUMBER OF ELECTRONS                          =   42
 CHARGE OF MOLECULE                           =    0
 SPIN MULTIPLICITY                            =    1
 NUMBER OF OCCUPIED ORBITALS (ALPHA)          =   21
 NUMBER OF OCCUPIED ORBITALS (BETA )          =   21
 TOTAL NUMBER OF ATOMS                        =   12
 THE NUCLEAR REPULSION ENERGY IS      201.5958396276

     $CONTRL OPTIONS
     ---------------
 SCFTYP=RHF          RUNTYP=ENERGY       EXETYP=RUN     
 MPLEVL=       0     CITYP =NONE         CCTYP =NONE         VBTYP =NONE    
 DFTTYP=NONE         TDDFT =NONE    
 MULT  =       1     ICHARG=       0     NZVAR =       0     COORD =UNIQUE  
 PP    =NONE         RELWFN=NONE         LOCAL =NONE         NUMGRD=       F
 ISPHER=       1     NOSYM =       0     MAXIT =      30     UNITS =BOHR    
 PLTORB=       F     MOLPLT=       F     AIMPAC=       F     FRIEND=        
 NPRINT=       7     IREST =       0     GEOM  =INPUT   
 NORMF =       0     NORMP =       0     ITOL  =      20     ICUT  =       9
 INTTYP=BEST         GRDTYP=BEST         QMTTOL= 1.0E-06

     $SYSTEM OPTIONS
     ---------------
  REPLICATED MEMORY=   300000000 WORDS (ON EVERY NODE).
 DISTRIBUTED MEMDDI=           0 MILLION WORDS IN AGGREGATE,
 MEMDDI DISTRIBUTED OVER   1 PROCESSORS IS           0 WORDS/PROCESSOR.
 TOTAL MEMORY REQUESTED ON EACH PROCESSOR=   300000000 WORDS.
 TIMLIM=   100000000.00 MINUTES, OR   69444.4 DAYS.
 PARALL= F  BALTYP=  DLB     KDIAG=    0  COREFL= F
 MXSEQ2=     300 MXSEQ3=     150  mem10=         0

          ----------------
          PROPERTIES INPUT
          ----------------

     MOMENTS            FIELD           POTENTIAL          DENSITY
 IEMOM =       1   IEFLD =       0   IEPOT =       0   IEDEN =       0
 WHERE =COMASS     WHERE =NUCLEI     WHERE =NUCLEI     WHERE =NUCLEI  
 OUTPUT=BOTH       OUTPUT=BOTH       OUTPUT=BOTH       OUTPUT=BOTH    
 IEMINT=       0   IEFINT=       0                     IEDINT=       0
                                                       MORB  =       0
          EXTRAPOLATION IN EFFECT
          SOSCF IN EFFECT
 ORBITAL PRINTING OPTION: NPREO=     1   204     2     1

     -------------------------------
     INTEGRAL TRANSFORMATION OPTIONS
     -------------------------------
     NWORD  =            0
     CUTOFF = 1.0E-09     MPTRAN =       0
     DIRTRF =       T     AOINTS =DUP     

          ----------------------
          INTEGRAL INPUT OPTIONS
          ----------------------
 NOPK  =       1 NORDER=       0 SCHWRZ=       T

     ------------------------------------------
     THE POINT GROUP IS DNH, NAXIS= 2, ORDER= 8
     ------------------------------------------

 -- VARIATIONAL SPACE WILL BE RESTRICTED TO PURE SPHERICAL HARMONICS ONLY --
 AFTER EXCLUDING CONTAMINANT COMBINATIONS FROM THE CARTESIAN GAUSSIAN BASIS
 SET, THE NUMBER OF SPHERICAL HARMONICS KEPT IN THE VARIATION SPACE IS  192

     DIMENSIONS OF THE SYMMETRY SUBSPACES ARE
 AG  =   39     AU  =   11     B3U =   39     B3G =   11     B1G =   30
 B1U =   16     B2U =   30     B2G =   16

 ..... DONE SETTING UP THE RUN .....
 STEP CPU TIME =     0.04 TOTAL CPU TIME =          0.0 (      0.0 MIN)
 TOTAL WALL CLOCK TIME=          0.1 SECONDS, CPU UTILIZATION IS    80.00%

          ********************
          1 ELECTRON INTEGRALS
          ********************
 ...... END OF ONE-ELECTRON INTEGRALS ......
 STEP CPU TIME =     0.04 TOTAL CPU TIME =          0.1 (      0.0 MIN)
 TOTAL WALL CLOCK TIME=          0.1 SECONDS, CPU UTILIZATION IS    88.89%

          -------------
          GUESS OPTIONS
          -------------
          GUESS =HUCKEL            NORB  =       0          NORDER=       0
          MIX   =       F          PRTMO =       F          PUNMO =       F
          TOLZ  = 1.0E-08          TOLE  = 1.0E-05
          SYMDEN=       F          PURIFY=       F

 INITIAL GUESS ORBITALS GENERATED BY HUCKEL   ROUTINE.
 HUCKEL GUESS REQUIRES    313428 WORDS.

 STATISTICS FOR GENERATION OF SYMMETRY ORBITAL -Q- MATRIX
 NUMBER OF CARTESIAN ATOMIC ORBITALS=        204
 NUMBER OF SPHERICAL CONTAMINANTS DROPPED=    12
 NUMBER OF LINEARLY DEPENDENT MOS DROPPED=     0
 TOTAL NUMBER OF MOS IN VARIATION SPACE=     192

                    * * * * * WARNING * * * * *
 POSSIBLE LINEAR DEPENDENCE PROBLEMS DETECTED, INPUT QMTTOL= 1.0E-06,
 WITH     1 OVERLAP EIGENVALUES LYING BETWEEN 1.0E-05 AND QMTTOL.
 IF YOU EXPERIENCE SCF CONVERGENCE DIFFICULTIES WITH THE DENSITY ALMOST BUT
 NOT QUITE CONVERGED, YOU MAY NEED TO LOOSEN -QMTTOL- BY A FACTOR 5 TO 10.

 SYMMETRIES FOR INITIAL GUESS ORBITALS FOLLOW.   BOTH SET(S).
    21 ORBITALS ARE OCCUPIED (    6 CORE ORBITALS).
     7=?AG      8=B2U      9=B3U     10=?AG     11=?B1G    12=?AG     13=B3U 
    14=B1U     15=B2U     16=B2U     17=B3U     18=B3G     19=B2G     20=?B1G
    21=?AG     22=B1U     23=AU      24=B2G     25=B3U     26=B2U     27=AG  
    28=AG      29=AG      30=AG      31=AG  
 ...... END OF INITIAL ORBITAL SELECTION ......
 STEP CPU TIME =     0.06 TOTAL CPU TIME =          0.1 (      0.0 MIN)
 TOTAL WALL CLOCK TIME=          0.2 SECONDS, CPU UTILIZATION IS    93.33%

                    ----------------------
                    AO INTEGRAL TECHNOLOGY
                    ----------------------
     S,P,L SHELL ROTATED AXIS INTEGRALS, REPROGRAMMED BY
        KAZUYA ISHIMURA (IMS) AND JOSE SIERRA (SYNSTAR).
     S,P,D,L SHELL ROTATED AXIS INTEGRALS PROGRAMMED BY
        KAZUYA ISHIMURA (INSTITUTE FOR MOLECULAR SCIENCE).
     S,P,D,F,G SHELL TO TOTAL QUARTET ANGULAR MOMENTUM SUM 5,
        ERIC PROGRAM BY GRAHAM FLETCHER (ELORET AND NASA ADVANCED
        SUPERCOMPUTING DIVISION, AMES RESEARCH CENTER).
     S,P,D,F,G,L SHELL GENERAL RYS QUADRATURE PROGRAMMED BY
        MICHEL DUPUIS (PACIFIC NORTHWEST NATIONAL LABORATORY).

          --------------------
          2 ELECTRON INTEGRALS
          --------------------

 DIRECT SCF METHOD SKIPS INTEGRAL STORAGE ON DISK.
 DIRECT TRANSFORMATION SKIPS AO INTEGRAL STORAGE ON DISK.
  ...... END OF TWO-ELECTRON INTEGRALS .....
 STEP CPU TIME =     0.01 TOTAL CPU TIME =          0.2 (      0.0 MIN)
 TOTAL WALL CLOCK TIME=          0.2 SECONDS, CPU UTILIZATION IS    75.00%

          --------------------------
                 RHF SCF CALCULATION
          --------------------------

     NUCLEAR ENERGY =       201.5958396276
     MAXIT =   30     NPUNCH=    2
     EXTRAP=T  DAMP=F  SHIFT=F  RSTRCT=F  DIIS=F  DEM=F  SOSCF=T
     DENSITY MATRIX CONV=  2.00E-05
     SOSCF WILL OPTIMIZE    3591 ORBITAL ROTATIONS, SOGTOL=   0.250
     MEMORY REQUIRED FOR RHF ITERS=    361068 WORDS.

 DIRECT SCF CALCULATION, SCHWRZ=T   FDIFF=T,  DIRTHR=  0.00E+00 NITDIR=10
 SCHWARZ INEQUALITY OVERHEAD:     20910 INTEGRALS, T=        0.02

                                                                                   NONZERO     BLOCKS
 ITER EX DEM     TOTAL ENERGY        E CHANGE  DENSITY CHANGE     ORB. GRAD      INTEGRALS    SKIPPED
   1  0  0     -230.1852598050  -230.1852598050   2.212175070   0.000000000       28219445      19213
          ---------------START SECOND ORDER SCF---------------
   2  1  0     -230.6881164795    -0.5028566745   0.534268609   0.039068918       28222453      20680
   3  2  0     -230.7194348466    -0.0313183672   0.085739018   0.015478631       28169310      30560
   4  3  0     -230.7252203683    -0.0057855216   0.016006310   0.002930773       28119360      37692
   5  4  0     -230.7255393662    -0.0003189979   0.016961200   0.000879850       28014413      51561
   6  5  0     -230.7255597552    -0.0000203890   0.004668217   0.000156756       27880715      64927
   7  6  0     -230.7255609975    -0.0000012423   0.000240518   0.000039773       27706942      80509
   8  7  0     -230.7255610426    -0.0000000451   0.000126676   0.000010171       27335638     110856
   9  8  0     -230.7255610456    -0.0000000031   0.000045083   0.000001587       26956428     137803
  10  9  0     -230.7255610455     0.0000000001   0.000006471   0.000000236       26391594     172106
  11 10  0     -230.7255610456    -0.0000000000   0.000014400   0.000000031       25561239     231458

          -----------------
          DENSITY CONVERGED
          -----------------
     TIME TO FORM FOCK OPERATORS=      42.8 SECONDS (       3.9 SEC/ITER)
     FOCK TIME ON FIRST ITERATION=       4.1, LAST ITERATION=       3.6
     TIME TO SOLVE SCF EQUATIONS=       0.2 SECONDS (       0.0 SEC/ITER)

 FINAL RHF ENERGY IS     -230.7255610456 AFTER  11 ITERATIONS

          ------------
          EIGENVECTORS
          ------------

                      1          2          3          4          5
                  -11.2486   -11.2480   -11.2480   -11.2469   -11.2469
                     AG         B3U        B2U        AG         B1G 
    1  C  1  S    0.409500   0.579885   0.000000   0.579807   0.000000
    2  C  1  S    0.002556   0.004881   0.000000   0.004606   0.000000
    3  C  1  S   -0.007079  -0.042360   0.000000  -0.032191   0.000000
    4  C  1  X    0.000085  -0.000057   0.000000   0.000032   0.000000
    5  C  1  Y   -0.000000  -0.000000   0.000061  -0.000000  -0.000161
    6  C  1  Z   -0.000000  -0.000000   0.000000  -0.000000   0.000000
    7  C  1  X   -0.002414   0.007954   0.000000   0.006556   0.000000
    8  C  1  Y   -0.000000  -0.000000   0.029132  -0.000000  -0.008740
    9  C  1  Z   -0.000000  -0.000000   0.000000  -0.000000   0.000000
   10  C  1 XX    0.000160   0.000120   0.000000   0.000089   0.000000
   11  C  1 YY    0.000059   0.000004   0.000000   0.000251   0.000000
   12  C  1 ZZ   -0.000219  -0.000123   0.000000  -0.000339   0.000000
   13  C  1 XY   -0.000000  -0.000000  -0.000074  -0.000000  -0.000080
   14  C  1 XZ   -0.000000  -0.000000   0.000000  -0.000000   0.000000
   15  C  1 YZ   -0.000000  -0.000000   0.000000  -0.000000   0.000000
   16  C  1  S   -0.002550  -0.017818   0.000000  -0.029193   0.000000
   17  C  1  X   -0.000887   0.000771   0.000000   0.007920   0.000000
   18  C  1  Y   -0.000000  -0.000000   0.007461  -0.000000  -0.001505
   19  C  1  Z   -0.000000  -0.000000   0.000000  -0.000000   0.000000
   20  C  1 XX   -0.000415   0.000296   0.000000   0.001168   0.000000
   21  C  1 YY   -0.000335  -0.001931   0.000000  -0.003713   0.000000
   22  C  1 ZZ    0.000749   0.001635   0.000000   0.002545   0.000000
   23  C  1 XY   -0.000000  -0.000000  -0.008365  -0.000000   0.001470
   24  C  1 XZ   -0.000000  -0.000000   0.000000  -0.000000   0.000000
   25  C  1 YZ   -0.000000  -0.000000   0.000000  -0.000000   0.000000
   26  C  2  S    0.409500  -0.579885   0.000000   0.579807   0.000000
   27  C  2  S    0.002556  -0.004881   0.000000   0.004606   0.000000
   28  C  2  S   -0.007079   0.042360   0.000000  -0.032191   0.000000
   29  C  2  X   -0.000085  -0.000057   0.000000  -0.000032   0.000000
   30  C  2  Y   -0.000000  -0.000000   0.000061  -0.000000   0.000161
   31  C  2  Z   -0.000000  -0.000000   0.000000  -0.000000   0.000000
   32  C  2  X    0.002414   0.007954   0.000000  -0.006556   0.000000
   33  C  2  Y   -0.000000  -0.000000   0.029132  -0.000000   0.008740
   34  C  2  Z   -0.000000  -0.000000   0.000000  -0.000000   0.000000
   35  C  2 XX    0.000160  -0.000120   0.000000   0.000089   0.000000
   36  C  2 YY    0.000059  -0.000004   0.000000   0.000251   0.000000
   37  C  2 ZZ   -0.000219   0.000123   0.000000  -0.000339   0.000000
   38  C  2 XY   -0.000000  -0.000000   0.000074  -0.000000  -0.000080
   39  C  2 XZ   -0.000000  -0.000000   0.000000  -0.000000   0.000000
   40  C  2 YZ   -0.000000  -0.000000   0.000000  -0.000000   0.000000
   41  C  2  S   -0.002550   0.017818   0.000000  -0.029193   0.000000
   42  C  2  X    0.000887   0.000771   0.000000  -0.007920   0.000000
   43  C  2  Y   -0.000000  -0.000000   0.007461  -0.000000   0.001505
   44  C  2  Z   -0.000000  -0.000000   0.000000  -0.000000   0.000000
   45  C  2 XX   -0.000415  -0.000296   0.000000   0.001168   0.000000
   46  C  2 YY   -0.000335   0.001931   0.000000  -0.003713   0.000000
   47  C  2 ZZ    0.000749  -0.001635   0.000000   0.002545   0.000000
   48  C  2 XY   -0.000000  -0.000000   0.008365  -0.000000   0.001470
   49  C  2 XZ   -0.000000  -0.000000   0.000000  -0.000000   0.000000
   50  C  2 YZ   -0.000000  -0.000000   0.000000  -0.000000   0.000000
   51  C  3  S    0.409400  -0.289871   0.502154  -0.289974   0.502168
   52  C  3  S    0.002555  -0.002440   0.004227  -0.002303   0.003989
   53  C  3  S   -0.007074   0.021176  -0.036683   0.016097  -0.027878
   54  C  3  X   -0.000043   0.000031   0.000051  -0.000113  -0.000083
   55  C  3  Y    0.000074   0.000051  -0.000027  -0.000083  -0.000016
   56  C  3  Z   -0.000000  -0.000000   0.000000  -0.000000   0.000000
   57  C  3  X    0.001206   0.023837   0.009171  -0.004915  -0.006621
   58  C  3  Y   -0.002091   0.009171   0.013249  -0.006622   0.002733
   59  C  3  Z   -0.000000  -0.000000   0.000000  -0.000000   0.000000
   60  C  3 XX    0.000084   0.000032   0.000056  -0.000053   0.000212
   61  C  3 YY    0.000135  -0.000093   0.000051  -0.000117   0.000082
   62  C  3 ZZ   -0.000219   0.000061  -0.000107   0.000170  -0.000294
   63  C  3 XY   -0.000050  -0.000003  -0.000069  -0.000075   0.000050
   64  C  3 XZ   -0.000000  -0.000000   0.000000  -0.000000   0.000000
   65  C  3 YZ   -0.000000  -0.000000   0.000000  -0.000000   0.000000
   66  C  3  S   -0.002545   0.008901  -0.015426   0.014597  -0.025282
   67  C  3  X    0.000444   0.005788   0.002897   0.000850  -0.004082
   68  C  3  Y   -0.000769   0.002899   0.002443  -0.004082   0.005563
   69  C  3  Z   -0.000000  -0.000000   0.000000  -0.000000   0.000000
   70  C  3 XX   -0.000354   0.006119   0.001947   0.000292  -0.002709
   71  C  3 YY   -0.000395  -0.005303  -0.003362   0.000981   0.000505
   72  C  3 ZZ    0.000749  -0.000817   0.001415  -0.001273   0.002204
   73  C  3 XY    0.000041  -0.003065  -0.003055   0.001857  -0.001746
   74  C  3 XZ   -0.000000  -0.000000   0.000000  -0.000000   0.000000
   75  C  3 YZ   -0.000000  -0.000000   0.000000  -0.000000   0.000000
   76  C  4  S    0.409400   0.289871   0.502154  -0.289974  -0.502168
   77  C  4  S    0.002555   0.002440   0.004227  -0.002303  -0.003989
   78  C  4  S   -0.007074  -0.021176  -0.036683   0.016097   0.027878
   79  C  4  X    0.000043   0.000031  -0.000051   0.000113  -0.000083
   80  C  4  Y    0.000074  -0.000051  -0.000027  -0.000083   0.000016
   81  C  4  Z   -0.000000  -0.000000   0.000000  -0.000000   0.000000
   82  C  4  X   -0.001206   0.023837  -0.009171   0.004915  -0.006621
   83  C  4  Y   -0.002091  -0.009171   0.013249  -0.006622  -0.002733
   84  C  4  Z   -0.000000  -0.000000   0.000000  -0.000000   0.000000
   85  C  4 XX    0.000084  -0.000032   0.000056  -0.000053  -0.000212
   86  C  4 YY    0.000135   0.000093   0.000051  -0.000117  -0.000082
   87  C  4 ZZ   -0.000219  -0.000061  -0.000107   0.000170   0.000294
   88  C  4 XY    0.000050  -0.000003   0.000069   0.000075   0.000050
   89  C  4 XZ   -0.000000  -0.000000   0.000000  -0.000000   0.000000
   90  C  4 YZ   -0.000000  -0.000000   0.000000  -0.000000   0.000000
   91  C  4  S   -0.002545  -0.008901  -0.015426   0.014597   0.025282
   92  C  4  X   -0.000444   0.005788  -0.002897  -0.000850  -0.004082
   93  C  4  Y   -0.000769  -0.002899   0.002443  -0.004082  -0.005563
   94  C  4  Z   -0.000000  -0.000000   0.000000  -0.000000   0.000000
   95  C  4 XX   -0.000354  -0.006119   0.001947   0.000292   0.002709
   96  C  4 YY   -0.000395   0.005303  -0.003362   0.000981  -0.000505
   97  C  4 ZZ    0.000749   0.000817   0.001415  -0.001273  -0.002204
   98  C  4 XY   -0.000041  -0.003065   0.003055  -0.001857  -0.001746
   99  C  4 XZ   -0.000000  -0.000000   0.000000  -0.000000   0.000000
  100  C  4 YZ   -0.000000  -0.000000   0.000000  -0.000000   0.000000
  101  C  5  S    0.409400  -0.289871  -0.502154  -0.289974  -0.502168
  102  C  5  S    0.002555  -0.002440  -0.004227  -0.002303  -0.003989
  103  C  5  S   -0.007074   0.021176   0.036683   0.016097   0.027878
  104  C  5  X   -0.000043   0.000031  -0.000051  -0.000113   0.000083
  105  C  5  Y   -0.000074  -0.000051  -0.000027   0.000083  -0.000016
  106  C  5  Z   -0.000000  -0.000000   0.000000  -0.000000   0.000000
  107  C  5  X    0.001206   0.023837  -0.009171  -0.004915   0.006621
  108  C  5  Y    0.002091  -0.009171   0.013249   0.006622   0.002733
  109  C  5  Z   -0.000000  -0.000000   0.000000  -0.000000   0.000000
  110  C  5 XX    0.000084   0.000032  -0.000056  -0.000053  -0.000212
  111  C  5 YY    0.000135  -0.000093  -0.000051  -0.000117  -0.000082
  112  C  5 ZZ   -0.000219   0.000061   0.000107   0.000170   0.000294
  113  C  5 XY    0.000050   0.000003  -0.000069   0.000075   0.000050
  114  C  5 XZ   -0.000000  -0.000000   0.000000  -0.000000   0.000000
  115  C  5 YZ   -0.000000  -0.000000   0.000000  -0.000000   0.000000
  116  C  5  S   -0.002545   0.008901   0.015426   0.014597   0.025282
  117  C  5  X    0.000444   0.005788  -0.002897   0.000850   0.004082
  118  C  5  Y    0.000769  -0.002899   0.002443   0.004082   0.005563
  119  C  5  Z   -0.000000  -0.000000   0.000000  -0.000000   0.000000
  120  C  5 XX   -0.000354   0.006119  -0.001947   0.000292   0.002709
  121  C  5 YY   -0.000395  -0.005303   0.003362   0.000981  -0.000505
  122  C  5 ZZ    0.000749  -0.000817  -0.001415  -0.001273  -0.002204
  123  C  5 XY   -0.000041   0.003065  -0.003055  -0.001857  -0.001746
  124  C  5 XZ   -0.000000  -0.000000   0.000000  -0.000000   0.000000
  125  C  5 YZ   -0.000000  -0.000000   0.000000  -0.000000   0.000000
  126  C  6  S    0.409400   0.289871  -0.502154  -0.289974   0.502168
  127  C  6  S    0.002555   0.002440  -0.004227  -0.002303   0.003989
  128  C  6  S   -0.007074  -0.021176   0.036683   0.016097  -0.027878
  129  C  6  X    0.000043   0.000031   0.000051   0.000113   0.000083
  130  C  6  Y   -0.000074   0.000051  -0.000027   0.000083   0.000016
  131  C  6  Z   -0.000000  -0.000000   0.000000  -0.000000   0.000000
  132  C  6  X   -0.001206   0.023837   0.009171   0.004915   0.006621
  133  C  6  Y    0.002091   0.009171   0.013249   0.006622  -0.002733
  134  C  6  Z   -0.000000  -0.000000   0.000000  -0.000000   0.000000
  135  C  6 XX    0.000084  -0.000032  -0.000056  -0.000053   0.000212
  136  C  6 YY    0.000135   0.000093  -0.000051  -0.000117   0.000082
  137  C  6 ZZ   -0.000219  -0.000061   0.000107   0.000170  -0.000294
  138  C  6 XY   -0.000050   0.000003   0.000069  -0.000075   0.000050
  139  C  6 XZ   -0.000000  -0.000000   0.000000  -0.000000   0.000000
  140  C  6 YZ   -0.000000  -0.000000   0.000000  -0.000000   0.000000
  141  C  6  S   -0.002545  -0.008901   0.015426   0.014597  -0.025282
  142  C  6  X   -0.000444   0.005788   0.002897  -0.000850   0.004082
  143  C  6  Y    0.000769   0.002899   0.002443   0.004082  -0.005563
  144  C  6  Z   -0.000000  -0.000000   0.000000  -0.000000   0.000000
  145  C  6 XX   -0.000354  -0.006119  -0.001947   0.000292  -0.002709
  146  C  6 YY   -0.000395   0.005303   0.003362   0.000981   0.000505
  147  C  6 ZZ    0.000749   0.000817  -0.001415  -0.001273   0.002204
  148  C  6 XY    0.000041   0.003065   0.003055   0.001857  -0.001746
  149  C  6 XZ   -0.000000  -0.000000   0.000000  -0.000000   0.000000
  150  C  6 YZ   -0.000000  -0.000000   0.000000  -0.000000   0.000000
  151  H  7  S    0.000085   0.000268   0.000000   0.000247   0.000000
  152  H  7  S    0.007025   0.004995   0.000000   0.001296   0.000000
  153  H  7  X    0.000122   0.000037   0.000000   0.000107   0.000000
  154  H  7  Y   -0.000000  -0.000000  -0.000017  -0.000000   0.000048
  155  H  7  Z   -0.000000  -0.000000   0.000000  -0.000000   0.000000
  156  H  7  S    0.000985  -0.000960   0.000000  -0.003286   0.000000
  157  H  7  X   -0.002178  -0.001795   0.000000  -0.000691   0.000000
  158  H  7  Y   -0.000000  -0.000000   0.000852  -0.000000  -0.000387
  159  H  7  Z   -0.000000  -0.000000   0.000000  -0.000000   0.000000
  160  H  8  S    0.000085  -0.000268   0.000000   0.000247   0.000000
  161  H  8  S    0.007025  -0.004995   0.000000   0.001296   0.000000
  162  H  8  X   -0.000122   0.000037   0.000000  -0.000107   0.000000
  163  H  8  Y   -0.000000  -0.000000  -0.000017  -0.000000  -0.000048
  164  H  8  Z   -0.000000  -0.000000   0.000000  -0.000000   0.000000
  165  H  8  S    0.000985   0.000960   0.000000  -0.003286   0.000000
  166  H  8  X    0.002178  -0.001795   0.000000   0.000691   0.000000
  167  H  8  Y   -0.000000  -0.000000   0.000852  -0.000000   0.000387
  168  H  8  Z   -0.000000  -0.000000   0.000000  -0.000000   0.000000
  169  H  9  S    0.000085   0.000134   0.000232  -0.000123  -0.000214
  170  H  9  S    0.007025   0.002498   0.004326  -0.000649  -0.001123
  171  H  9  X    0.000061  -0.000003   0.000023  -0.000062  -0.000026
  172  H  9  Y    0.000105   0.000023   0.000024  -0.000026  -0.000092
  173  H  9  Z   -0.000000  -0.000000   0.000000  -0.000000   0.000000
  174  H  9  S    0.000986  -0.000479  -0.000831   0.001643   0.002846
  175  H  9  X   -0.001089   0.000190  -0.001146   0.000463   0.000132
  176  H  9  Y   -0.001887  -0.001146  -0.001133   0.000132   0.000615
  177  H  9  Z   -0.000000  -0.000000   0.000000  -0.000000   0.000000
  178  H 10  S    0.000085  -0.000134   0.000232  -0.000123   0.000214
  179  H 10  S    0.007025  -0.002498   0.004326  -0.000649   0.001123
  180  H 10  X   -0.000061  -0.000003  -0.000023   0.000062  -0.000026
  181  H 10  Y    0.000105  -0.000023   0.000024  -0.000026   0.000092
  182  H 10  Z   -0.000000  -0.000000   0.000000  -0.000000   0.000000
  183  H 10  S    0.000986   0.000479  -0.000831   0.001643  -0.002846
  184  H 10  X    0.001089   0.000190   0.001146  -0.000463   0.000132
  185  H 10  Y   -0.001887   0.001146  -0.001133   0.000132  -0.000615
  186  H 10  Z   -0.000000  -0.000000   0.000000  -0.000000   0.000000
  187  H 11  S    0.000085   0.000134  -0.000232  -0.000123   0.000214
  188  H 11  S    0.007025   0.002498  -0.004326  -0.000649   0.001123
  189  H 11  X    0.000061  -0.000003  -0.000023  -0.000062   0.000026
  190  H 11  Y   -0.000105  -0.000023   0.000024   0.000026  -0.000092
  191  H 11  Z   -0.000000  -0.000000   0.000000  -0.000000   0.000000
  192  H 11  S    0.000986  -0.000479   0.000831   0.001643  -0.002846
  193  H 11  X   -0.001089   0.000190   0.001146   0.000463  -0.000132
  194  H 11  Y    0.001887   0.001146  -0.001133  -0.000132   0.000615
  195  H 11  Z   -0.000000  -0.000000   0.000000  -0.000000   0.000000
  196  H 12  S    0.000085  -0.000134  -0.000232  -0.000123  -0.000214
  197  H 12  S    0.007025  -0.002498  -0.004326  -0.000649  -0.001123
  198  H 12  X   -0.000061  -0.000003   0.000023   0.000062   0.000026
  199  H 12  Y   -0.000105   0.000023   0.000024   0.000026   0.000092
  200  H 12  Z   -0.000000  -0.000000   0.000000  -0.000000   0.000000
  201  H 12  S    0.000986   0.000479   0.000831   0.001643   0.002846
  202  H 12  X    0.001089   0.000190  -0.001146  -0.000463  -0.000132
  203  H 12  Y    0.001887  -0.001146  -0.001133  -0.000132  -0.000615
  204  H 12  Z   -0.000000  -0.000000   0.000000  -0.000000   0.000000

                      6          7          8          9         10
                  -11.2464    -1.1448    -1.0122    -1.0122    -0.8220
                     B3U        AG         B2U        B3U        AG  
    1  C  1  S    0.409984  -0.013049   0.000000  -0.018012   0.009674
    2  C  1  S    0.003210   0.176841   0.000000   0.246050  -0.201514
    3  C  1  S   -0.024994   0.099752   0.000000   0.219236  -0.265812
    4  C  1  X    0.000093  -0.062990   0.000000  -0.030974  -0.059504
    5  C  1  Y   -0.000000   0.000000   0.115234  -0.000000  -0.000000
    6  C  1  Z   -0.000000   0.000000   0.000000  -0.000000  -0.000000
    7  C  1  X    0.009094  -0.020942   0.000000  -0.072144   0.035384
    8  C  1  Y   -0.000000   0.000000  -0.042399  -0.000000  -0.000000
    9  C  1  Z   -0.000000   0.000000   0.000000  -0.000000  -0.000000
   10  C  1 XX    0.000220   0.000492   0.000000  -0.002011  -0.001599
   11  C  1 YY    0.000165   0.008795   0.000000   0.012444  -0.002868
   12  C  1 ZZ   -0.000385  -0.009288   0.000000  -0.010433   0.004467
   13  C  1 XY   -0.000000   0.000000  -0.019425  -0.000000  -0.000000
   14  C  1 XZ   -0.000000   0.000000   0.000000  -0.000000  -0.000000
   15  C  1 YZ   -0.000000   0.000000   0.000000  -0.000000  -0.000000
   16  C  1  S   -0.048247   0.002156   0.000000  -0.174515   0.336277
   17  C  1  X    0.011530   0.003712   0.000000  -0.001603  -0.051826
   18  C  1  Y   -0.000000   0.000000   0.091325  -0.000000  -0.000000
   19  C  1  Z   -0.000000   0.000000   0.000000  -0.000000  -0.000000
   20  C  1 XX   -0.000799  -0.005812   0.000000  -0.021970   0.072151
   21  C  1 YY   -0.001678   0.007362   0.000000   0.020576  -0.070776
   22  C  1 ZZ    0.002477  -0.001549   0.000000   0.001395  -0.001375
   23  C  1 XY   -0.000000   0.000000   0.026607  -0.000000  -0.000000
   24  C  1 XZ   -0.000000   0.000000   0.000000  -0.000000  -0.000000
   25  C  1 YZ   -0.000000   0.000000   0.000000  -0.000000  -0.000000
   26  C  2  S   -0.409984  -0.013049   0.000000   0.018012   0.009674
   27  C  2  S   -0.003210   0.176841   0.000000  -0.246050  -0.201514
   28  C  2  S    0.024994   0.099752   0.000000  -0.219236  -0.265812
   29  C  2  X    0.000093   0.062990   0.000000  -0.030974   0.059504
   30  C  2  Y   -0.000000   0.000000   0.115234  -0.000000  -0.000000
   31  C  2  Z   -0.000000   0.000000   0.000000  -0.000000  -0.000000
   32  C  2  X    0.009094   0.020942   0.000000  -0.072144  -0.035384
   33  C  2  Y   -0.000000   0.000000  -0.042399  -0.000000  -0.000000
   34  C  2  Z   -0.000000   0.000000   0.000000  -0.000000  -0.000000
   35  C  2 XX   -0.000220   0.000492   0.000000   0.002011  -0.001599
   36  C  2 YY   -0.000165   0.008795   0.000000  -0.012444  -0.002868
   37  C  2 ZZ    0.000385  -0.009288   0.000000   0.010433   0.004467
   38  C  2 XY   -0.000000   0.000000   0.019425  -0.000000  -0.000000
   39  C  2 XZ   -0.000000   0.000000   0.000000  -0.000000  -0.000000
   40  C  2 YZ   -0.000000   0.000000   0.000000  -0.000000  -0.000000
   41  C  2  S    0.048247   0.002156   0.000000   0.174515   0.336277
   42  C  2  X    0.011530  -0.003712   0.000000  -0.001603   0.051826
   43  C  2  Y   -0.000000   0.000000   0.091325  -0.000000  -0.000000
   44  C  2  Z   -0.000000   0.000000   0.000000  -0.000000  -0.000000
   45  C  2 XX    0.000799  -0.005812   0.000000   0.021970   0.072151
   46  C  2 YY    0.001678   0.007362   0.000000  -0.020576  -0.070776
   47  C  2 ZZ   -0.002477  -0.001549   0.000000  -0.001395  -0.001375
   48  C  2 XY   -0.000000   0.000000  -0.026607  -0.000000  -0.000000
   49  C  2 XZ   -0.000000   0.000000   0.000000  -0.000000  -0.000000
   50  C  2 YZ   -0.000000   0.000000   0.000000  -0.000000  -0.000000
   51  C  3  S    0.410084  -0.013049  -0.015599   0.009006  -0.004837
   52  C  3  S    0.003211   0.176841   0.213085  -0.123025   0.100756
   53  C  3  S   -0.025001   0.099757   0.189869  -0.109620   0.132904
   54  C  3  X   -0.000046   0.031496   0.063311   0.078682   0.138742
   55  C  3  Y    0.000080  -0.054551   0.005578   0.063311   0.114459
   56  C  3  Z   -0.000000   0.000000   0.000000  -0.000000  -0.000000
   57  C  3  X   -0.004550   0.010473   0.012881  -0.049831  -0.007293
   58  C  3  Y    0.007875  -0.018139  -0.064709   0.012881  -0.024640
   59  C  3  Z   -0.000000   0.000000   0.000000  -0.000000  -0.000000
   60  C  3 XX    0.000179   0.006720   0.014931   0.008202   0.012024
   61  C  3 YY    0.000206   0.002568  -0.005896  -0.013418  -0.009791
   62  C  3 ZZ   -0.000386  -0.009288  -0.009035   0.005216  -0.002234
   63  C  3 XY   -0.000027   0.004151   0.001403  -0.012025  -0.006849
   64  C  3 XZ   -0.000000   0.000000   0.000000  -0.000000  -0.000000
   65  C  3 YZ   -0.000000   0.000000   0.000000  -0.000000  -0.000000
   66  C  3  S   -0.048250   0.002155  -0.151136   0.087256  -0.168139
   67  C  3  X   -0.005766  -0.001855   0.040239   0.068092   0.017218
   68  C  3  Y    0.009985   0.003215   0.021629   0.040239   0.039863
   69  C  3  Z   -0.000000   0.000000   0.000000  -0.000000  -0.000000
   70  C  3 XX   -0.001459   0.004066  -0.001370  -0.022251   0.008399
   71  C  3 YY   -0.001018  -0.002517   0.000162   0.022948  -0.009086
   72  C  3 ZZ    0.002477  -0.001549   0.001208  -0.000697   0.000687
   73  C  3 XY   -0.000439   0.006586   0.025076   0.000883   0.041814
   74  C  3 XZ   -0.000000   0.000000   0.000000  -0.000000  -0.000000
   75  C  3 YZ   -0.000000   0.000000   0.000000  -0.000000  -0.000000
   76  C  4  S   -0.410084  -0.013049  -0.015599  -0.009006  -0.004837
   77  C  4  S   -0.003211   0.176841   0.213085   0.123025   0.100756
   78  C  4  S    0.025001   0.099757   0.189869   0.109620   0.132904
   79  C  4  X   -0.000046  -0.031496  -0.063311   0.078682  -0.138742
   80  C  4  Y   -0.000080  -0.054551   0.005578  -0.063311   0.114459
   81  C  4  Z   -0.000000   0.000000   0.000000  -0.000000  -0.000000
   82  C  4  X   -0.004550  -0.010473  -0.012881  -0.049831   0.007293
   83  C  4  Y   -0.007875  -0.018139  -0.064709  -0.012881  -0.024640
   84  C  4  Z   -0.000000   0.000000   0.000000  -0.000000  -0.000000
   85  C  4 XX   -0.000179   0.006720   0.014931  -0.008202   0.012024
   86  C  4 YY   -0.000206   0.002568  -0.005896   0.013418  -0.009791
   87  C  4 ZZ    0.000386  -0.009288  -0.009035  -0.005216  -0.002234
   88  C  4 XY   -0.000027  -0.004151  -0.001403  -0.012025   0.006849
   89  C  4 XZ   -0.000000   0.000000   0.000000  -0.000000  -0.000000
   90  C  4 YZ   -0.000000   0.000000   0.000000  -0.000000  -0.000000
   91  C  4  S    0.048250   0.002155  -0.151136  -0.087256  -0.168139
   92  C  4  X   -0.005766   0.001855  -0.040239   0.068092  -0.017218
   93  C  4  Y   -0.009985   0.003215   0.021629  -0.040239   0.039863
   94  C  4  Z   -0.000000   0.000000   0.000000  -0.000000  -0.000000
   95  C  4 XX    0.001459   0.004066  -0.001370   0.022251   0.008399
   96  C  4 YY    0.001018  -0.002517   0.000162  -0.022948  -0.009086
   97  C  4 ZZ   -0.002477  -0.001549   0.001208   0.000697   0.000687
   98  C  4 XY   -0.000439  -0.006586  -0.025076   0.000883  -0.041814
   99  C  4 XZ   -0.000000   0.000000   0.000000  -0.000000  -0.000000
  100  C  4 YZ   -0.000000   0.000000   0.000000  -0.000000  -0.000000
  101  C  5  S    0.410084  -0.013049   0.015599   0.009006  -0.004837
  102  C  5  S    0.003211   0.176841  -0.213085  -0.123025   0.100756
  103  C  5  S   -0.025001   0.099757  -0.189869  -0.109620   0.132904
  104  C  5  X   -0.000046   0.031496  -0.063311   0.078682   0.138742
  105  C  5  Y   -0.000080   0.054551   0.005578  -0.063311  -0.114459
  106  C  5  Z   -0.000000   0.000000   0.000000  -0.000000  -0.000000
  107  C  5  X   -0.004550   0.010473  -0.012881  -0.049831  -0.007293
  108  C  5  Y   -0.007875   0.018139  -0.064709  -0.012881   0.024640
  109  C  5  Z   -0.000000   0.000000   0.000000  -0.000000  -0.000000
  110  C  5 XX    0.000179   0.006720  -0.014931   0.008202   0.012024
  111  C  5 YY    0.000206   0.002568   0.005896  -0.013418  -0.009791
  112  C  5 ZZ   -0.000386  -0.009288   0.009035   0.005216  -0.002234
  113  C  5 XY    0.000027  -0.004151   0.001403   0.012025   0.006849
  114  C  5 XZ   -0.000000   0.000000   0.000000  -0.000000  -0.000000
  115  C  5 YZ   -0.000000   0.000000   0.000000  -0.000000  -0.000000
  116  C  5  S   -0.048250   0.002155   0.151136   0.087256  -0.168139
  117  C  5  X   -0.005766  -0.001855  -0.040239   0.068092   0.017218
  118  C  5  Y   -0.009985  -0.003215   0.021629  -0.040239  -0.039863
  119  C  5  Z   -0.000000   0.000000   0.000000  -0.000000  -0.000000
  120  C  5 XX   -0.001459   0.004066   0.001370  -0.022251   0.008399
  121  C  5 YY   -0.001018  -0.002517  -0.000162   0.022948  -0.009086
  122  C  5 ZZ    0.002477  -0.001549  -0.001208  -0.000697   0.000687
  123  C  5 XY    0.000439  -0.006586   0.025076  -0.000883  -0.041814
  124  C  5 XZ   -0.000000   0.000000   0.000000  -0.000000  -0.000000
  125  C  5 YZ   -0.000000   0.000000   0.000000  -0.000000  -0.000000
  126  C  6  S   -0.410084  -0.013049   0.015599  -0.009006  -0.004837
  127  C  6  S   -0.003211   0.176841  -0.213085   0.123025   0.100756
  128  C  6  S    0.025001   0.099757  -0.189869   0.109620   0.132904
  129  C  6  X   -0.000046  -0.031496   0.063311   0.078682  -0.138742
  130  C  6  Y    0.000080   0.054551   0.005578   0.063311  -0.114459
  131  C  6  Z   -0.000000   0.000000   0.000000  -0.000000  -0.000000
  132  C  6  X   -0.004550  -0.010473   0.012881  -0.049831   0.007293
  133  C  6  Y    0.007875   0.018139  -0.064709   0.012881   0.024640
  134  C  6  Z   -0.000000   0.000000   0.000000  -0.000000  -0.000000
  135  C  6 XX   -0.000179   0.006720  -0.014931  -0.008202   0.012024
  136  C  6 YY   -0.000206   0.002568   0.005896   0.013418  -0.009791
  137  C  6 ZZ    0.000386  -0.009288   0.009035  -0.005216  -0.002234
  138  C  6 XY    0.000027   0.004151  -0.001403   0.012025  -0.006849
  139  C  6 XZ   -0.000000   0.000000   0.000000  -0.000000  -0.000000
  140  C  6 YZ   -0.000000   0.000000   0.000000  -0.000000  -0.000000
  141  C  6  S    0.048250   0.002155   0.151136  -0.087256  -0.168139
  142  C  6  X   -0.005766   0.001855   0.040239   0.068092  -0.017218
  143  C  6  Y    0.009985  -0.003215   0.021629   0.040239  -0.039863
  144  C  6  Z   -0.000000   0.000000   0.000000  -0.000000  -0.000000
  145  C  6 XX    0.001459   0.004066   0.001370   0.022251   0.008399
  146  C  6 YY    0.001018  -0.002517  -0.000162  -0.022948  -0.009086
  147  C  6 ZZ   -0.002477  -0.001549  -0.001208   0.000697   0.000687
  148  C  6 XY    0.000439   0.006586  -0.025076  -0.000883   0.041814
  149  C  6 XZ   -0.000000   0.000000   0.000000  -0.000000  -0.000000
  150  C  6 YZ   -0.000000   0.000000   0.000000  -0.000000  -0.000000
  151  H  7  S    0.000120   0.048620   0.000000   0.106575  -0.158029
  152  H  7  S   -0.000539   0.002683   0.000000   0.080894  -0.179119
  153  H  7  X    0.000162  -0.007589   0.000000  -0.014013   0.015541
  154  H  7  Y   -0.000000   0.000000   0.003547  -0.000000  -0.000000
  155  H  7  Z   -0.000000   0.000000   0.000000  -0.000000  -0.000000
  156  H  7  S   -0.004084  -0.001211   0.000000  -0.013701   0.024337
  157  H  7  X    0.000405   0.001693   0.000000  -0.013161   0.030888
  158  H  7  Y   -0.000000   0.000000  -0.012862  -0.000000  -0.000000
  159  H  7  Z   -0.000000   0.000000   0.000000  -0.000000  -0.000000
  160  H  8  S   -0.000120   0.048620   0.000000  -0.106575  -0.158029
  161  H  8  S    0.000539   0.002683   0.000000  -0.080894  -0.179119
  162  H  8  X    0.000162   0.007589   0.000000  -0.014013  -0.015541
  163  H  8  Y   -0.000000   0.000000   0.003547  -0.000000  -0.000000
  164  H  8  Z   -0.000000   0.000000   0.000000  -0.000000  -0.000000
  165  H  8  S    0.004084  -0.001211   0.000000   0.013701   0.024337
  166  H  8  X    0.000405  -0.001693   0.000000  -0.013161  -0.030888
  167  H  8  Y   -0.000000   0.000000  -0.012862  -0.000000  -0.000000
  168  H  8  Z   -0.000000   0.000000   0.000000  -0.000000  -0.000000
  169  H  9  S   -0.000120   0.048620   0.092296   0.053287   0.079016
  170  H  9  S    0.000538   0.002682   0.070059   0.040448   0.089561
  171  H  9  X   -0.000081  -0.003794  -0.007604  -0.000843  -0.007096
  172  H  9  Y   -0.000141  -0.006572  -0.009623  -0.007604  -0.004876
  173  H  9  Z   -0.000000   0.000000   0.000000  -0.000000  -0.000000
  174  H  9  S    0.004084  -0.001211  -0.011865  -0.006850  -0.012168
  175  H  9  X   -0.000203   0.000847  -0.000129  -0.012937   0.001962
  176  H  9  Y   -0.000351   0.001466  -0.013087  -0.000130  -0.018966
  177  H  9  Z   -0.000000   0.000000   0.000000  -0.000000  -0.000000
  178  H 10  S    0.000120   0.048620   0.092296  -0.053287   0.079016
  179  H 10  S   -0.000538   0.002682   0.070059  -0.040448   0.089561
  180  H 10  X   -0.000081   0.003794   0.007604  -0.000843   0.007096
  181  H 10  Y    0.000141  -0.006572  -0.009623   0.007604  -0.004876
  182  H 10  Z   -0.000000   0.000000   0.000000  -0.000000  -0.000000
  183  H 10  S   -0.004084  -0.001211  -0.011865   0.006850  -0.012168
  184  H 10  X   -0.000203  -0.000847   0.000129  -0.012937  -0.001962
  185  H 10  Y    0.000351   0.001466  -0.013087   0.000130  -0.018966
  186  H 10  Z   -0.000000   0.000000   0.000000  -0.000000  -0.000000
  187  H 11  S   -0.000120   0.048620  -0.092296   0.053287   0.079016
  188  H 11  S    0.000538   0.002682  -0.070059   0.040448   0.089561
  189  H 11  X   -0.000081  -0.003794   0.007604  -0.000843  -0.007096
  190  H 11  Y    0.000141   0.006572  -0.009623   0.007604   0.004876
  191  H 11  Z   -0.000000   0.000000   0.000000  -0.000000  -0.000000
  192  H 11  S    0.004084  -0.001211   0.011865  -0.006850  -0.012168
  193  H 11  X   -0.000203   0.000847   0.000129  -0.012937   0.001962
  194  H 11  Y    0.000351  -0.001466  -0.013087   0.000130   0.018966
  195  H 11  Z   -0.000000   0.000000   0.000000  -0.000000  -0.000000
  196  H 12  S    0.000120   0.048620  -0.092296  -0.053287   0.079016
  197  H 12  S   -0.000538   0.002682  -0.070059  -0.040448   0.089561
  198  H 12  X   -0.000081   0.003794  -0.007604  -0.000843   0.007096
  199  H 12  Y   -0.000141   0.006572  -0.009623  -0.007604   0.004876
  200  H 12  Z   -0.000000   0.000000   0.000000  -0.000000  -0.000000
  201  H 12  S   -0.004084  -0.001211   0.011865   0.006850  -0.012168
  202  H 12  X   -0.000203  -0.000847  -0.000129  -0.012937  -0.001962
  203  H 12  Y   -0.000351  -0.001466  -0.013087  -0.000130   0.018966
  204  H 12  Z   -0.000000   0.000000   0.000000  -0.000000  -0.000000

                     11         12         13         14         15
                   -0.8220    -0.7035    -0.6440    -0.6150    -0.5852
                     B1G        AG         B3U        B2U        B2U 
    1  C  1  S   -0.000000  -0.002849   0.003187   0.000000   0.000000
    2  C  1  S   -0.000000   0.012294  -0.117877   0.000000   0.000000
    3  C  1  S   -0.000000  -0.036770  -0.132502   0.000000   0.000000
    4  C  1  X   -0.000000   0.191591  -0.128400   0.000000   0.000000
    5  C  1  Y    0.204826   0.000000  -0.000000   0.275929  -0.086491
    6  C  1  Z   -0.000000   0.000000  -0.000000   0.000000   0.000000
    7  C  1  X   -0.000000   0.015771  -0.038548   0.000000   0.000000
    8  C  1  Y   -0.021542   0.000000  -0.000000   0.098928  -0.080465
    9  C  1  Z   -0.000000   0.000000  -0.000000   0.000000   0.000000
   10  C  1 XX   -0.000000  -0.001784  -0.021222   0.000000   0.000000
   11  C  1 YY   -0.000000   0.001911   0.021847   0.000000   0.000000
   12  C  1 ZZ   -0.000000  -0.000127  -0.000626   0.000000   0.000000
   13  C  1 XY   -0.016549   0.000000  -0.000000  -0.011255   0.020404
   14  C  1 XZ   -0.000000   0.000000  -0.000000   0.000000   0.000000
   15  C  1 YZ   -0.000000   0.000000  -0.000000   0.000000   0.000000
   16  C  1  S   -0.000000  -0.024682   1.298050   0.000000   0.000000
   17  C  1  X   -0.000000  -0.011241  -0.264295   0.000000   0.000000
   18  C  1  Y    0.040241   0.000000  -0.000000   0.007772   0.053183
   19  C  1  Z   -0.000000   0.000000  -0.000000   0.000000   0.000000
   20  C  1 XX   -0.000000  -0.022905   0.107344   0.000000   0.000000
   21  C  1 YY   -0.000000   0.021375  -0.100310   0.000000   0.000000
   22  C  1 ZZ   -0.000000   0.001529  -0.007034   0.000000   0.000000
   23  C  1 XY    0.014053   0.000000  -0.000000   0.015878  -0.025325
   24  C  1 XZ   -0.000000   0.000000  -0.000000   0.000000   0.000000
   25  C  1 YZ   -0.000000   0.000000  -0.000000   0.000000   0.000000
   26  C  2  S   -0.000000  -0.002849  -0.003187   0.000000   0.000000
   27  C  2  S   -0.000000   0.012294   0.117877   0.000000   0.000000
   28  C  2  S   -0.000000  -0.036770   0.132502   0.000000   0.000000
   29  C  2  X   -0.000000  -0.191591  -0.128400   0.000000   0.000000
   30  C  2  Y   -0.204826   0.000000  -0.000000   0.275929  -0.086491
   31  C  2  Z   -0.000000   0.000000  -0.000000   0.000000   0.000000
   32  C  2  X   -0.000000  -0.015771  -0.038548   0.000000   0.000000
   33  C  2  Y    0.021542   0.000000  -0.000000   0.098928  -0.080465
   34  C  2  Z   -0.000000   0.000000  -0.000000   0.000000   0.000000
   35  C  2 XX   -0.000000  -0.001784   0.021222   0.000000   0.000000
   36  C  2 YY   -0.000000   0.001911  -0.021847   0.000000   0.000000
   37  C  2 ZZ   -0.000000  -0.000127   0.000626   0.000000   0.000000
   38  C  2 XY   -0.016549   0.000000  -0.000000   0.011255  -0.020404
   39  C  2 XZ   -0.000000   0.000000  -0.000000   0.000000   0.000000
   40  C  2 YZ   -0.000000   0.000000  -0.000000   0.000000   0.000000
   41  C  2  S   -0.000000  -0.024682  -1.298050   0.000000   0.000000
   42  C  2  X   -0.000000   0.011241  -0.264295   0.000000   0.000000
   43  C  2  Y   -0.040241   0.000000  -0.000000   0.007772   0.053183
   44  C  2  Z   -0.000000   0.000000  -0.000000   0.000000   0.000000
   45  C  2 XX   -0.000000  -0.022905  -0.107344   0.000000   0.000000
   46  C  2 YY   -0.000000   0.021375   0.100310   0.000000   0.000000
   47  C  2 ZZ   -0.000000   0.001529   0.007034   0.000000   0.000000
   48  C  2 XY    0.014053   0.000000  -0.000000  -0.015878   0.025325
   49  C  2 XZ   -0.000000   0.000000  -0.000000   0.000000   0.000000
   50  C  2 YZ   -0.000000   0.000000  -0.000000   0.000000   0.000000
   51  C  3  S    0.008378  -0.002849   0.003187  -0.000000   0.000137
   52  C  3  S   -0.174516   0.012292  -0.117877   0.000002  -0.036261
   53  C  3  S   -0.230198  -0.036771  -0.132516   0.000008  -0.097627
   54  C  3  X    0.114458  -0.095796   0.064200  -0.238952  -0.163075
   55  C  3  Y    0.006578   0.165921  -0.111199  -0.137971   0.195927
   56  C  3  Z   -0.000000   0.000000  -0.000000   0.000000   0.000000
   57  C  3  X   -0.024618  -0.007886   0.019268  -0.085669  -0.069371
   58  C  3  Y    0.021171   0.013657  -0.033381  -0.049464   0.039675
   59  C  3  Z   -0.000000   0.000000  -0.000000   0.000000   0.000000
   60  C  3 XX    0.003997   0.000987   0.011080  -0.008440  -0.011750
   61  C  3 YY   -0.007866  -0.000860  -0.010454   0.008440   0.011569
   62  C  3 ZZ    0.003869  -0.000127  -0.000626  -0.000000   0.000181
   63  C  3 XY   -0.004687   0.001848   0.021534   0.005627  -0.002913
   64  C  3 XZ   -0.000000   0.000000  -0.000000   0.000000   0.000000
   65  C  3 YZ   -0.000000   0.000000  -0.000000   0.000000   0.000000
   66  C  3  S    0.291225  -0.024677   1.298057   0.000003  -0.098750
   67  C  3  X    0.039855   0.005621   0.132150  -0.006733   0.033659
   68  C  3  Y   -0.028816  -0.009736  -0.228886  -0.003886  -0.005117
   69  C  3  Z   -0.000000   0.000000  -0.000000   0.000000   0.000000
   70  C  3 XX   -0.035611   0.010305  -0.048398   0.011905   0.030092
   71  C  3 YY    0.036802  -0.011834   0.055433  -0.011905  -0.030605
   72  C  3 ZZ   -0.001191   0.001529  -0.007034   0.000000   0.000513
   73  C  3 XY   -0.058381   0.022140  -0.103824  -0.007940   0.035369
   74  C  3 XZ   -0.000000   0.000000  -0.000000   0.000000   0.000000
   75  C  3 YZ   -0.000000   0.000000  -0.000000   0.000000   0.000000
   76  C  4  S   -0.008378  -0.002849  -0.003187  -0.000000   0.000137
   77  C  4  S    0.174516   0.012292   0.117877   0.000002  -0.036261
   78  C  4  S    0.230198  -0.036771   0.132516   0.000008  -0.097627
   79  C  4  X    0.114458   0.095796   0.064200   0.238952   0.163075
   80  C  4  Y   -0.006578   0.165921   0.111199  -0.137971   0.195927
   81  C  4  Z   -0.000000   0.000000  -0.000000   0.000000   0.000000
   82  C  4  X   -0.024618   0.007886   0.019268   0.085669   0.069371
   83  C  4  Y   -0.021171   0.013657   0.033381  -0.049464   0.039675
   84  C  4  Z   -0.000000   0.000000  -0.000000   0.000000   0.000000
   85  C  4 XX   -0.003997   0.000987  -0.011080  -0.008440  -0.011750
   86  C  4 YY    0.007866  -0.000860   0.010454   0.008440   0.011569
   87  C  4 ZZ   -0.003869  -0.000127   0.000626  -0.000000   0.000181
   88  C  4 XY   -0.004687  -0.001848   0.021534  -0.005627   0.002913
   89  C  4 XZ   -0.000000   0.000000  -0.000000   0.000000   0.000000
   90  C  4 YZ   -0.000000   0.000000  -0.000000   0.000000   0.000000
   91  C  4  S   -0.291225  -0.024677  -1.298057   0.000003  -0.098750
   92  C  4  X    0.039855  -0.005621   0.132150   0.006733  -0.033659
   93  C  4  Y    0.028816  -0.009736   0.228886  -0.003886  -0.005117
   94  C  4  Z   -0.000000   0.000000  -0.000000   0.000000   0.000000
   95  C  4 XX    0.035611   0.010305   0.048398   0.011905   0.030092
   96  C  4 YY   -0.036802  -0.011834  -0.055433  -0.011905  -0.030605
   97  C  4 ZZ    0.001191   0.001529   0.007034   0.000000   0.000513
   98  C  4 XY   -0.058381  -0.022140  -0.103824   0.007940  -0.035369
   99  C  4 XZ   -0.000000   0.000000  -0.000000   0.000000   0.000000
  100  C  4 YZ   -0.000000   0.000000  -0.000000   0.000000   0.000000
  101  C  5  S   -0.008378  -0.002849   0.003187   0.000000  -0.000137
  102  C  5  S    0.174516   0.012292  -0.117877  -0.000002   0.036261
  103  C  5  S    0.230198  -0.036771  -0.132516  -0.000008   0.097627
  104  C  5  X   -0.114458  -0.095796   0.064200   0.238952   0.163075
  105  C  5  Y    0.006578  -0.165921   0.111199  -0.137971   0.195927
  106  C  5  Z   -0.000000   0.000000  -0.000000   0.000000   0.000000
  107  C  5  X    0.024618  -0.007886   0.019268   0.085669   0.069371
  108  C  5  Y    0.021171  -0.013657   0.033381  -0.049464   0.039675
  109  C  5  Z   -0.000000   0.000000  -0.000000   0.000000   0.000000
  110  C  5 XX   -0.003997   0.000987   0.011080   0.008440   0.011750
  111  C  5 YY    0.007866  -0.000860  -0.010454  -0.008440  -0.011569
  112  C  5 ZZ   -0.003869  -0.000127  -0.000626   0.000000  -0.000181
  113  C  5 XY   -0.004687  -0.001848  -0.021534   0.005627  -0.002913
  114  C  5 XZ   -0.000000   0.000000  -0.000000   0.000000   0.000000
  115  C  5 YZ   -0.000000   0.000000  -0.000000   0.000000   0.000000
  116  C  5  S   -0.291225  -0.024677   1.298057  -0.000003   0.098750
  117  C  5  X   -0.039855   0.005621   0.132150   0.006733  -0.033659
  118  C  5  Y   -0.028816   0.009736   0.228886  -0.003886  -0.005117
  119  C  5  Z   -0.000000   0.000000  -0.000000   0.000000   0.000000
  120  C  5 XX    0.035611   0.010305  -0.048398  -0.011905  -0.030092
  121  C  5 YY   -0.036802  -0.011834   0.055433   0.011905   0.030605
  122  C  5 ZZ    0.001191   0.001529  -0.007034  -0.000000  -0.000513
  123  C  5 XY   -0.058381  -0.022140   0.103824  -0.007940   0.035369
  124  C  5 XZ   -0.000000   0.000000  -0.000000   0.000000   0.000000
  125  C  5 YZ   -0.000000   0.000000  -0.000000   0.000000   0.000000
  126  C  6  S    0.008378  -0.002849  -0.003187   0.000000  -0.000137
  127  C  6  S   -0.174516   0.012292   0.117877  -0.000002   0.036261
  128  C  6  S   -0.230198  -0.036771   0.132516  -0.000008   0.097627
  129  C  6  X   -0.114458   0.095796   0.064200  -0.238952  -0.163075
  130  C  6  Y   -0.006578  -0.165921  -0.111199  -0.137971   0.195927
  131  C  6  Z   -0.000000   0.000000  -0.000000   0.000000   0.000000
  132  C  6  X    0.024618   0.007886   0.019268  -0.085669  -0.069371
  133  C  6  Y   -0.021171  -0.013657  -0.033381  -0.049464   0.039675
  134  C  6  Z   -0.000000   0.000000  -0.000000   0.000000   0.000000
  135  C  6 XX    0.003997   0.000987  -0.011080   0.008440   0.011750
  136  C  6 YY   -0.007866  -0.000860   0.010454  -0.008440  -0.011569
  137  C  6 ZZ    0.003869  -0.000127   0.000626   0.000000  -0.000181
  138  C  6 XY   -0.004687   0.001848  -0.021534  -0.005627   0.002913
  139  C  6 XZ   -0.000000   0.000000  -0.000000   0.000000   0.000000
  140  C  6 YZ   -0.000000   0.000000  -0.000000   0.000000   0.000000
  141  C  6  S    0.291225  -0.024677  -1.298057  -0.000003   0.098750
  142  C  6  X   -0.039855  -0.005621   0.132150  -0.006733   0.033659
  143  C  6  Y    0.028816   0.009736  -0.228886  -0.003886  -0.005117
  144  C  6  Z   -0.000000   0.000000  -0.000000   0.000000   0.000000
  145  C  6 XX   -0.035611   0.010305   0.048398  -0.011905  -0.030092
  146  C  6 YY    0.036802  -0.011834  -0.055433   0.011905   0.030605
  147  C  6 ZZ   -0.001191   0.001529   0.007034  -0.000000  -0.000513
  148  C  6 XY   -0.058381   0.022140   0.103824   0.007940  -0.035369
  149  C  6 XZ   -0.000000   0.000000  -0.000000   0.000000   0.000000
  150  C  6 YZ   -0.000000   0.000000  -0.000000   0.000000   0.000000
  151  H  7  S   -0.000000   0.155751  -0.187584   0.000000   0.000000
  152  H  7  S   -0.000000   0.110351  -0.316477   0.000000   0.000000
  153  H  7  X   -0.000000  -0.011427   0.012175   0.000000   0.000000
  154  H  7  Y    0.004280   0.000000  -0.000000   0.005287  -0.002805
  155  H  7  Z   -0.000000   0.000000  -0.000000   0.000000   0.000000
  156  H  7  S   -0.000000   0.011638   0.075711   0.000000   0.000000
  157  H  7  X   -0.000000  -0.014630   0.060475   0.000000   0.000000
  158  H  7  Y   -0.012913   0.000000  -0.000000  -0.017047   0.008430
  159  H  7  Z   -0.000000   0.000000  -0.000000   0.000000   0.000000
  160  H  8  S   -0.000000   0.155751   0.187584   0.000000   0.000000
  161  H  8  S   -0.000000   0.110351   0.316477   0.000000   0.000000
  162  H  8  X   -0.000000   0.011427   0.012175   0.000000   0.000000
  163  H  8  Y   -0.004280   0.000000  -0.000000   0.005287  -0.002805
  164  H  8  Z   -0.000000   0.000000  -0.000000   0.000000   0.000000
  165  H  8  S   -0.000000   0.011638  -0.075711   0.000000   0.000000
  166  H  8  X   -0.000000   0.014630   0.060475   0.000000   0.000000
  167  H  8  Y    0.012913   0.000000  -0.000000  -0.017047   0.008430
  168  H  8  Z   -0.000000   0.000000  -0.000000   0.000000   0.000000
  169  H  9  S    0.136858   0.155749   0.187586  -0.000009   0.197287
  170  H  9  S    0.155123   0.110350   0.316479  -0.000008   0.172345
  171  H  9  X   -0.004876  -0.005713  -0.006087   0.004579  -0.004253
  172  H  9  Y   -0.012726  -0.009896  -0.010544  -0.002643  -0.010172
  173  H  9  Z   -0.000000   0.000000  -0.000000   0.000000   0.000000
  174  H  9  S   -0.021077   0.011639  -0.075712  -0.000001   0.012588
  175  H  9  X   -0.018965  -0.007315  -0.030238  -0.014761  -0.015560
  176  H  9  Y   -0.019939  -0.012670  -0.052373   0.008524  -0.018520
  177  H  9  Z   -0.000000   0.000000  -0.000000   0.000000   0.000000
  178  H 10  S   -0.136858   0.155749  -0.187586  -0.000009   0.197287
  179  H 10  S   -0.155123   0.110350  -0.316479  -0.000008   0.172345
  180  H 10  X   -0.004876   0.005713  -0.006087  -0.004579   0.004253
  181  H 10  Y    0.012726  -0.009896   0.010544  -0.002643  -0.010172
  182  H 10  Z   -0.000000   0.000000  -0.000000   0.000000   0.000000
  183  H 10  S    0.021077   0.011639   0.075712  -0.000001   0.012588
  184  H 10  X   -0.018965   0.007315  -0.030238   0.014761   0.015560
  185  H 10  Y    0.019939  -0.012670   0.052373   0.008524  -0.018520
  186  H 10  Z   -0.000000   0.000000  -0.000000   0.000000   0.000000
  187  H 11  S   -0.136858   0.155749   0.187586   0.000009  -0.197287
  188  H 11  S   -0.155123   0.110350   0.316479   0.000008  -0.172345
  189  H 11  X    0.004876  -0.005713  -0.006087  -0.004579   0.004253
  190  H 11  Y   -0.012726   0.009896   0.010544  -0.002643  -0.010172
  191  H 11  Z   -0.000000   0.000000  -0.000000   0.000000   0.000000
  192  H 11  S    0.021077   0.011639  -0.075712   0.000001  -0.012588
  193  H 11  X    0.018965  -0.007315  -0.030238   0.014761   0.015560
  194  H 11  Y   -0.019939   0.012670   0.052373   0.008524  -0.018520
  195  H 11  Z   -0.000000   0.000000  -0.000000   0.000000   0.000000
  196  H 12  S    0.136858   0.155749  -0.187586   0.000009  -0.197287
  197  H 12  S    0.155123   0.110350  -0.316479   0.000008  -0.172345
  198  H 12  X    0.004876   0.005713  -0.006087   0.004579  -0.004253
  199  H 12  Y    0.012726   0.009896  -0.010544  -0.002643  -0.010172
  200  H 12  Z   -0.000000   0.000000  -0.000000   0.000000   0.000000
  201  H 12  S   -0.021077   0.011639   0.075712   0.000001  -0.012588
  202  H 12  X    0.018965   0.007315  -0.030238  -0.014761  -0.015560
  203  H 12  Y    0.019939   0.012670  -0.052373   0.008524  -0.018520
  204  H 12  Z   -0.000000   0.000000  -0.000000   0.000000   0.000000

                     16         17         18         19         20
                   -0.5852    -0.4966    -0.4938    -0.4938    -0.3344
                     B3U        B1U        B1G        AG         B3G 
    1  C  1  S    0.000158  -0.000000  -0.000000  -0.001299  -0.000000
    2  C  1  S   -0.041871  -0.000000  -0.000000  -0.011156  -0.000000
    3  C  1  S   -0.112732  -0.000000  -0.000000  -0.062189  -0.000000
    4  C  1  X    0.290078  -0.000000  -0.000000   0.221183  -0.000000
    5  C  1  Y   -0.000000  -0.000000  -0.255206  -0.000000  -0.000000
    6  C  1  Z   -0.000000   0.215362  -0.000000  -0.000000  -0.000000
    7  C  1  X    0.079729  -0.000000  -0.000000   0.071267  -0.000000
    8  C  1  Y   -0.000000  -0.000000  -0.161700  -0.000000  -0.000000
    9  C  1  Z   -0.000000   0.126408  -0.000000  -0.000000  -0.000000
   10  C  1 XX    0.009151  -0.000000  -0.000000   0.029149  -0.000000
   11  C  1 YY   -0.009359  -0.000000  -0.000000  -0.028884  -0.000000
   12  C  1 ZZ    0.000208  -0.000000  -0.000000  -0.000265  -0.000000
   13  C  1 XY   -0.000000  -0.000000   0.021513  -0.000000  -0.000000
   14  C  1 XZ   -0.000000  -0.015561  -0.000000  -0.000000  -0.000000
   15  C  1 YZ   -0.000000  -0.000000  -0.000000  -0.000000   0.030514
   16  C  1  S   -0.114020  -0.000000  -0.000000  -0.141558  -0.000000
   17  C  1  X   -0.024552  -0.000000  -0.000000   0.013223  -0.000000
   18  C  1  Y   -0.000000  -0.000000  -0.003277  -0.000000  -0.000000
   19  C  1  Z   -0.000000   0.004265  -0.000000  -0.000000  -0.000000
   20  C  1 XX   -0.048449  -0.000000  -0.000000  -0.065376  -0.000000
   21  C  1 YY    0.047857  -0.000000  -0.000000   0.069872  -0.000000
   22  C  1 ZZ    0.000592  -0.000000  -0.000000  -0.004496  -0.000000
   23  C  1 XY   -0.000000  -0.000000  -0.031890  -0.000000  -0.000000
   24  C  1 XZ   -0.000000  -0.000446  -0.000000  -0.000000  -0.000000
   25  C  1 YZ   -0.000000  -0.000000  -0.000000  -0.000000   0.004188
   26  C  2  S   -0.000158  -0.000000  -0.000000  -0.001299  -0.000000
   27  C  2  S    0.041871  -0.000000  -0.000000  -0.011156  -0.000000
   28  C  2  S    0.112732  -0.000000  -0.000000  -0.062189  -0.000000
   29  C  2  X    0.290078  -0.000000  -0.000000  -0.221183  -0.000000
   30  C  2  Y   -0.000000  -0.000000   0.255206  -0.000000  -0.000000
   31  C  2  Z   -0.000000   0.215362  -0.000000  -0.000000  -0.000000
   32  C  2  X    0.079729  -0.000000  -0.000000  -0.071267  -0.000000
   33  C  2  Y   -0.000000  -0.000000   0.161700  -0.000000  -0.000000
   34  C  2  Z   -0.000000   0.126408  -0.000000  -0.000000  -0.000000
   35  C  2 XX   -0.009151  -0.000000  -0.000000   0.029149  -0.000000
   36  C  2 YY    0.009359  -0.000000  -0.000000  -0.028884  -0.000000
   37  C  2 ZZ   -0.000208  -0.000000  -0.000000  -0.000265  -0.000000
   38  C  2 XY   -0.000000  -0.000000   0.021513  -0.000000  -0.000000
   39  C  2 XZ   -0.000000   0.015561  -0.000000  -0.000000  -0.000000
   40  C  2 YZ   -0.000000  -0.000000  -0.000000  -0.000000   0.030514
   41  C  2  S    0.114020  -0.000000  -0.000000  -0.141558  -0.000000
   42  C  2  X   -0.024552  -0.000000  -0.000000  -0.013223  -0.000000
   43  C  2  Y   -0.000000  -0.000000   0.003277  -0.000000  -0.000000
   44  C  2  Z   -0.000000   0.004265  -0.000000  -0.000000  -0.000000
   45  C  2 XX    0.048449  -0.000000  -0.000000  -0.065376  -0.000000
   46  C  2 YY   -0.047857  -0.000000  -0.000000   0.069872  -0.000000
   47  C  2 ZZ   -0.000592  -0.000000  -0.000000  -0.004496  -0.000000
   48  C  2 XY   -0.000000  -0.000000  -0.031890  -0.000000  -0.000000
   49  C  2 XZ   -0.000000   0.000446  -0.000000  -0.000000  -0.000000
   50  C  2 YZ   -0.000000  -0.000000  -0.000000  -0.000000   0.004188
   51  C  3  S   -0.000079  -0.000000   0.001125   0.000650  -0.000000
   52  C  3  S    0.020936  -0.000000   0.009660   0.005578  -0.000000
   53  C  3  S    0.056367  -0.000000   0.053852   0.031092  -0.000000
   54  C  3  X    0.007641  -0.000000  -0.014733   0.246701  -0.000000
   55  C  3  Y   -0.163064  -0.000000  -0.229689   0.014732  -0.000000
   56  C  3  Z   -0.000000   0.215363  -0.000000  -0.000000   0.277590
   57  C  3  X   -0.040420  -0.000000  -0.039154   0.139090  -0.000000
   58  C  3  Y   -0.069363  -0.000000  -0.093869   0.039156  -0.000000
   59  C  3  Z   -0.000000   0.126408  -0.000000  -0.000000   0.206489
   60  C  3 XX   -0.010887  -0.000000   0.004382   0.021161  -0.000000
   61  C  3 YY    0.010991  -0.000000  -0.004612  -0.021294  -0.000000
   62  C  3 ZZ   -0.000104  -0.000000   0.000229   0.000133  -0.000000
   63  C  3 XY    0.013463  -0.000000   0.030507   0.005193  -0.000000
   64  C  3 XZ   -0.000000   0.007781  -0.000000  -0.000000   0.018536
   65  C  3 YZ   -0.000000  -0.013477  -0.000000  -0.000000  -0.001591
   66  C  3  S    0.057024  -0.000000   0.122597   0.070778  -0.000000
   67  C  3  X    0.033752  -0.000000   0.004310   0.005764  -0.000000
   68  C  3  Y    0.033658  -0.000000  -0.010735  -0.004307  -0.000000
   69  C  3  Z   -0.000000   0.004265  -0.000000  -0.000000   0.030835
   70  C  3 XX    0.004560  -0.000000  -0.019269  -0.038745  -0.000000
   71  C  3 YY   -0.004264  -0.000000   0.015376   0.036497  -0.000000
   72  C  3 ZZ   -0.000296  -0.000000   0.003893   0.002248  -0.000000
   73  C  3 XY   -0.035041  -0.000000  -0.066535  -0.020002  -0.000000
   74  C  3 XZ   -0.000000   0.000223  -0.000000  -0.000000   0.003351
   75  C  3 YZ   -0.000000  -0.000386  -0.000000  -0.000000  -0.001617
   76  C  4  S    0.000079  -0.000000  -0.001125   0.000650  -0.000000
   77  C  4  S   -0.020936  -0.000000  -0.009660   0.005578  -0.000000
   78  C  4  S   -0.056367  -0.000000  -0.053852   0.031092  -0.000000
   79  C  4  X    0.007641  -0.000000  -0.014733  -0.246701  -0.000000
   80  C  4  Y    0.163064  -0.000000   0.229689   0.014732  -0.000000
   81  C  4  Z   -0.000000   0.215363  -0.000000  -0.000000   0.277590
   82  C  4  X   -0.040420  -0.000000  -0.039154  -0.139090  -0.000000
   83  C  4  Y    0.069363  -0.000000   0.093869   0.039156  -0.000000
   84  C  4  Z   -0.000000   0.126408  -0.000000  -0.000000   0.206489
   85  C  4 XX    0.010887  -0.000000  -0.004382   0.021161  -0.000000
   86  C  4 YY   -0.010991  -0.000000   0.004612  -0.021294  -0.000000
   87  C  4 ZZ    0.000104  -0.000000  -0.000229   0.000133  -0.000000
   88  C  4 XY    0.013463  -0.000000   0.030507  -0.005193  -0.000000
   89  C  4 XZ   -0.000000  -0.007781  -0.000000  -0.000000  -0.018536
   90  C  4 YZ   -0.000000  -0.013477  -0.000000  -0.000000  -0.001591
   91  C  4  S   -0.057024  -0.000000  -0.122597   0.070778  -0.000000
   92  C  4  X    0.033752  -0.000000   0.004310  -0.005764  -0.000000
   93  C  4  Y   -0.033658  -0.000000   0.010735  -0.004307  -0.000000
   94  C  4  Z   -0.000000   0.004265  -0.000000  -0.000000   0.030835
   95  C  4 XX   -0.004560  -0.000000   0.019269  -0.038745  -0.000000
   96  C  4 YY    0.004264  -0.000000  -0.015376   0.036497  -0.000000
   97  C  4 ZZ    0.000296  -0.000000  -0.003893   0.002248  -0.000000
   98  C  4 XY   -0.035041  -0.000000  -0.066535   0.020002  -0.000000
   99  C  4 XZ   -0.000000  -0.000223  -0.000000  -0.000000  -0.003351
  100  C  4 YZ   -0.000000  -0.000386  -0.000000  -0.000000  -0.001617
  101  C  5  S   -0.000079  -0.000000  -0.001125   0.000650  -0.000000
  102  C  5  S    0.020936  -0.000000  -0.009660   0.005578  -0.000000
  103  C  5  S    0.056367  -0.000000  -0.053852   0.031092  -0.000000
  104  C  5  X    0.007641  -0.000000   0.014733   0.246701  -0.000000
  105  C  5  Y    0.163064  -0.000000  -0.229689  -0.014732  -0.000000
  106  C  5  Z   -0.000000   0.215363  -0.000000  -0.000000  -0.277590
  107  C  5  X   -0.040420  -0.000000   0.039154   0.139090  -0.000000
  108  C  5  Y    0.069363  -0.000000  -0.093869  -0.039156  -0.000000
  109  C  5  Z   -0.000000   0.126408  -0.000000  -0.000000  -0.206489
  110  C  5 XX   -0.010887  -0.000000  -0.004382   0.021161  -0.000000
  111  C  5 YY    0.010991  -0.000000   0.004612  -0.021294  -0.000000
  112  C  5 ZZ   -0.000104  -0.000000  -0.000229   0.000133  -0.000000
  113  C  5 XY   -0.013463  -0.000000   0.030507  -0.005193  -0.000000
  114  C  5 XZ   -0.000000   0.007781  -0.000000  -0.000000  -0.018536
  115  C  5 YZ   -0.000000   0.013477  -0.000000  -0.000000  -0.001591
  116  C  5  S    0.057024  -0.000000  -0.122597   0.070778  -0.000000
  117  C  5  X    0.033752  -0.000000  -0.004310   0.005764  -0.000000
  118  C  5  Y   -0.033658  -0.000000  -0.010735   0.004307  -0.000000
  119  C  5  Z   -0.000000   0.004265  -0.000000  -0.000000  -0.030835
  120  C  5 XX    0.004560  -0.000000   0.019269  -0.038745  -0.000000
  121  C  5 YY   -0.004264  -0.000000  -0.015376   0.036497  -0.000000
  122  C  5 ZZ   -0.000296  -0.000000  -0.003893   0.002248  -0.000000
  123  C  5 XY    0.035041  -0.000000  -0.066535   0.020002  -0.000000
  124  C  5 XZ   -0.000000   0.000223  -0.000000  -0.000000  -0.003351
  125  C  5 YZ   -0.000000   0.000386  -0.000000  -0.000000  -0.001617
  126  C  6  S    0.000079  -0.000000   0.001125   0.000650  -0.000000
  127  C  6  S   -0.020936  -0.000000   0.009660   0.005578  -0.000000
  128  C  6  S   -0.056367  -0.000000   0.053852   0.031092  -0.000000
  129  C  6  X    0.007641  -0.000000   0.014733  -0.246701  -0.000000
  130  C  6  Y   -0.163064  -0.000000   0.229689  -0.014732  -0.000000
  131  C  6  Z   -0.000000   0.215363  -0.000000  -0.000000  -0.277590
  132  C  6  X   -0.040420  -0.000000   0.039154  -0.139090  -0.000000
  133  C  6  Y   -0.069363  -0.000000   0.093869  -0.039156  -0.000000
  134  C  6  Z   -0.000000   0.126408  -0.000000  -0.000000  -0.206489
  135  C  6 XX    0.010887  -0.000000   0.004382   0.021161  -0.000000
  136  C  6 YY   -0.010991  -0.000000  -0.004612  -0.021294  -0.000000
  137  C  6 ZZ    0.000104  -0.000000   0.000229   0.000133  -0.000000
  138  C  6 XY   -0.013463  -0.000000   0.030507   0.005193  -0.000000
  139  C  6 XZ   -0.000000  -0.007781  -0.000000  -0.000000   0.018536
  140  C  6 YZ   -0.000000   0.013477  -0.000000  -0.000000  -0.001591
  141  C  6  S   -0.057024  -0.000000   0.122597   0.070778  -0.000000
  142  C  6  X    0.033752  -0.000000  -0.004310  -0.005764  -0.000000
  143  C  6  Y    0.033658  -0.000000   0.010735   0.004307  -0.000000
  144  C  6  Z   -0.000000   0.004265  -0.000000  -0.000000  -0.030835
  145  C  6 XX   -0.004560  -0.000000  -0.019269  -0.038745  -0.000000
  146  C  6 YY    0.004264  -0.000000   0.015376   0.036497  -0.000000
  147  C  6 ZZ    0.000296  -0.000000   0.003893   0.002248  -0.000000
  148  C  6 XY    0.035041  -0.000000  -0.066535  -0.020002  -0.000000
  149  C  6 XZ   -0.000000  -0.000223  -0.000000  -0.000000   0.003351
  150  C  6 YZ   -0.000000   0.000386  -0.000000  -0.000000  -0.001617
  151  H  7  S    0.227808  -0.000000  -0.000000   0.221463  -0.000000
  152  H  7  S    0.199007  -0.000000  -0.000000   0.307081  -0.000000
  153  H  7  X   -0.012628  -0.000000  -0.000000  -0.009409  -0.000000
  154  H  7  Y   -0.000000  -0.000000  -0.006999  -0.000000  -0.000000
  155  H  7  Z   -0.000000   0.007515  -0.000000  -0.000000  -0.000000
  156  H  7  S    0.014536  -0.000000  -0.000000   0.017676  -0.000000
  157  H  7  X   -0.027504  -0.000000  -0.000000  -0.062277  -0.000000
  158  H  7  Y   -0.000000  -0.000000   0.017305  -0.000000  -0.000000
  159  H  7  Z   -0.000000   0.000164  -0.000000  -0.000000  -0.000000
  160  H  8  S   -0.227808  -0.000000  -0.000000   0.221463  -0.000000
  161  H  8  S   -0.199007  -0.000000  -0.000000   0.307081  -0.000000
  162  H  8  X   -0.012628  -0.000000  -0.000000   0.009409  -0.000000
  163  H  8  Y   -0.000000  -0.000000   0.006999  -0.000000  -0.000000
  164  H  8  Z   -0.000000   0.007515  -0.000000  -0.000000  -0.000000
  165  H  8  S   -0.014536  -0.000000  -0.000000   0.017676  -0.000000
  166  H  8  X   -0.027504  -0.000000  -0.000000   0.062277  -0.000000
  167  H  8  Y   -0.000000  -0.000000  -0.017305  -0.000000  -0.000000
  168  H  8  Z   -0.000000   0.000164  -0.000000  -0.000000  -0.000000
  169  H  9  S    0.113903  -0.000000   0.191793  -0.110731  -0.000000
  170  H  9  S    0.099505  -0.000000   0.265939  -0.153539  -0.000000
  171  H  9  X   -0.005261  -0.000000  -0.007105  -0.002897  -0.000000
  172  H  9  Y   -0.004254  -0.000000  -0.005307   0.007105  -0.000000
  173  H  9  Z   -0.000000   0.007515  -0.000000  -0.000000   0.010429
[...]
    4             0.333448   0.318159   0.358629   0.177392   0.196248
    5             0.333448   0.318159   0.358629   0.177392   0.196248
    6             0.333448   0.318159   0.358629   0.177392   0.196248
    7            -0.000061   0.015178  -0.005355   0.136003   0.238296
    8            -0.000061   0.015178  -0.005355   0.136003   0.238296
    9            -0.000061   0.015177   0.100666   0.029985   0.053875
   10            -0.000061   0.015177   0.100666   0.029985   0.053875
   11            -0.000061   0.015177   0.100666   0.029985   0.053875
   12            -0.000061   0.015177   0.100666   0.029985   0.053875

                     11         12         13         14         15

                  2.000000   2.000000   2.000000   2.000000   2.000000

    1             0.174490   0.168242   0.060294   0.340544   0.042749
    2             0.174490   0.168242   0.060294   0.340544   0.042749
    3             0.239733   0.168242   0.060296   0.340530   0.242429
    4             0.239733   0.168242   0.060296   0.340530   0.242429
    5             0.239733   0.168242   0.060296   0.340530   0.242429
    6             0.239733   0.168242   0.060296   0.340530   0.242429
    7            -0.007602   0.165094   0.273035  -0.007202   0.001819
    8            -0.007602   0.165094   0.273035  -0.007202   0.001819
    9             0.176823   0.165090   0.273039  -0.007201   0.235287
   10             0.176823   0.165090   0.273039  -0.007201   0.235287
   11             0.176823   0.165090   0.273039  -0.007201   0.235287
   12             0.176823   0.165090   0.273039  -0.007201   0.235287

                     16         17         18         19         20

                  2.000000   2.000000   2.000000   2.000000   2.000000

    1             0.308984   0.331684   0.246226   0.140651   0.019557
    2             0.308984   0.331684   0.246226   0.140651   0.019557
    3             0.109311   0.331684   0.167044   0.219833   0.482939
    4             0.109311   0.331684   0.167044   0.219833   0.482939
    5             0.109311   0.331684   0.167044   0.219833   0.482939
    6             0.109311   0.331684   0.167044   0.219833   0.482939
    7             0.313110   0.001650  -0.000313   0.280102   0.000000
    8             0.313110   0.001650  -0.000313   0.280102   0.000000
    9             0.079641   0.001650   0.209999   0.069791   0.007282
   10             0.079641   0.001650   0.209999   0.069791   0.007282
   11             0.079641   0.001650   0.209999   0.069791   0.007282
   12             0.079641   0.001650   0.209999   0.069791   0.007282

                     21

                  2.000000

    1             0.637400
    2             0.637400
    3             0.174018
    4             0.174018
    5             0.174018
    6             0.174018
    7             0.009710
    8             0.009710
    9             0.002427
   10             0.002427
   11             0.002427
   12             0.002427

               ----- POPULATIONS IN EACH AO -----
                             MULLIKEN      LOWDIN
              1  C  1  S      2.00815     1.81145
              2  C  1  S      0.65926     0.43611
              3  C  1  S      0.54005     0.17890
              4  C  1  X      0.72029     0.60548
              5  C  1  Y      0.74867     0.63265
              6  C  1  Z      0.52257     0.42960
              7  C  1  X      0.11496     0.27762
              8  C  1  Y      0.02006     0.24538
              9  C  1  Z      0.42283     0.28254
             10  C  1 XX      0.00454     0.15160
             11  C  1 YY      0.03159     0.15794
             12  C  1 ZZ      0.02441     0.05570
             13  C  1 XY      0.00524     0.04828
             14  C  1 XZ      0.01497     0.00609
             15  C  1 YZ      0.00000     0.02517
             16  C  1  S     -0.25736     0.04354
             17  C  1  X      0.03414     0.03443
             18  C  1  Y      0.13944     0.04275
             19  C  1  Z      0.01859     0.03400
             20  C  1 XX      0.00305     0.12168
             21  C  1 YY     -0.16723     0.15526
             22  C  1 ZZ     -0.02873     0.00699
             23  C  1 XY     -0.00014     0.11380
             24  C  1 XZ      0.00459     0.02306
             25  C  1 YZ      0.00000     0.12379
             26  C  2  S      2.00815     1.81145
             27  C  2  S      0.65926     0.43611
             28  C  2  S      0.54005     0.17890
             29  C  2  X      0.72029     0.60548
             30  C  2  Y      0.74867     0.63265
             31  C  2  Z      0.52257     0.42960
             32  C  2  X      0.11496     0.27762
             33  C  2  Y      0.02006     0.24538
             34  C  2  Z      0.42283     0.28254
             35  C  2 XX      0.00454     0.15160
             36  C  2 YY      0.03159     0.15794
             37  C  2 ZZ      0.02441     0.05570
             38  C  2 XY      0.00524     0.04828
             39  C  2 XZ      0.01497     0.00609
             40  C  2 YZ      0.00000     0.02517
             41  C  2  S     -0.25736     0.04354
             42  C  2  X      0.03414     0.03443
             43  C  2  Y      0.13944     0.04275
             44  C  2  Z      0.01859     0.03400
             45  C  2 XX      0.00305     0.12168
             46  C  2 YY     -0.16723     0.15526
             47  C  2 ZZ     -0.02873     0.00699
             48  C  2 XY     -0.00014     0.11380
             49  C  2 XZ      0.00459     0.02306
             50  C  2 YZ      0.00000     0.12379
             51  C  3  S      2.00815     1.81336
             52  C  3  S      0.65926     0.43937
             53  C  3  S      0.54007     0.18155
             54  C  3  X      0.74157     0.63063
             55  C  3  Y      0.72738     0.60840
             56  C  3  Z      0.52257     0.42960
             57  C  3  X      0.04382     0.25099
             58  C  3  Y      0.09123     0.26670
             59  C  3  Z      0.42283     0.28254
             60  C  3 XX      0.00454     0.15238
             61  C  3 YY      0.02620     0.14841
             62  C  3 ZZ      0.02979     0.05725
             63  C  3 XY      0.01253     0.06389
             64  C  3 XZ      0.00767     0.02040
             65  C  3 YZ      0.00000     0.01086
             66  C  3  S     -0.25736     0.04357
             67  C  3  X      0.11311     0.04066
             68  C  3  Y      0.06047     0.03659
             69  C  3  Z      0.01859     0.03400
             70  C  3 XX      0.00305     0.12201
             71  C  3 YY     -0.06336     0.10224
             72  C  3 ZZ     -0.13260     0.00708
             73  C  3 XY      0.00341     0.18354
             74  C  3 XZ      0.00104     0.09861
             75  C  3 YZ      0.00000     0.04824
             76  C  4  S      2.00815     1.81336
             77  C  4  S      0.65926     0.43937
             78  C  4  S      0.54007     0.18155
             79  C  4  X      0.74157     0.63063
             80  C  4  Y      0.72738     0.60840
             81  C  4  Z      0.52257     0.42960
             82  C  4  X      0.04382     0.25099
             83  C  4  Y      0.09123     0.26670
             84  C  4  Z      0.42283     0.28254
             85  C  4 XX      0.00454     0.15238
             86  C  4 YY      0.02620     0.14841
             87  C  4 ZZ      0.02979     0.05725
             88  C  4 XY      0.01253     0.06389
             89  C  4 XZ      0.00767     0.02040
             90  C  4 YZ      0.00000     0.01086
             91  C  4  S     -0.25736     0.04357
             92  C  4  X      0.11311     0.04066
             93  C  4  Y      0.06047     0.03659
             94  C  4  Z      0.01859     0.03400
             95  C  4 XX      0.00305     0.12201
             96  C  4 YY     -0.06336     0.10224
             97  C  4 ZZ     -0.13260     0.00708
             98  C  4 XY      0.00341     0.18354
             99  C  4 XZ      0.00104     0.09861
            100  C  4 YZ      0.00000     0.04824
            101  C  5  S      2.00815     1.81336
            102  C  5  S      0.65926     0.43937
            103  C  5  S      0.54007     0.18155
            104  C  5  X      0.74157     0.63063
            105  C  5  Y      0.72738     0.60840
            106  C  5  Z      0.52257     0.42960
            107  C  5  X      0.04382     0.25099
            108  C  5  Y      0.09123     0.26670
            109  C  5  Z      0.42283     0.28254
            110  C  5 XX      0.00454     0.15238
            111  C  5 YY      0.02620     0.14841
            112  C  5 ZZ      0.02979     0.05725
            113  C  5 XY      0.01253     0.06389
            114  C  5 XZ      0.00767     0.02040
            115  C  5 YZ      0.00000     0.01086
            116  C  5  S     -0.25736     0.04357
            117  C  5  X      0.11311     0.04066
            118  C  5  Y      0.06047     0.03659
            119  C  5  Z      0.01859     0.03400
            120  C  5 XX      0.00305     0.12201
            121  C  5 YY     -0.06336     0.10224
            122  C  5 ZZ     -0.13260     0.00708
            123  C  5 XY      0.00341     0.18354
            124  C  5 XZ      0.00104     0.09861
            125  C  5 YZ      0.00000     0.04824
            126  C  6  S      2.00815     1.81336
            127  C  6  S      0.65926     0.43937
            128  C  6  S      0.54007     0.18155
            129  C  6  X      0.74157     0.63063
            130  C  6  Y      0.72738     0.60840
            131  C  6  Z      0.52257     0.42960
            132  C  6  X      0.04382     0.25099
            133  C  6  Y      0.09123     0.26670
            134  C  6  Z      0.42283     0.28254
            135  C  6 XX      0.00454     0.15238
            136  C  6 YY      0.02620     0.14841
            137  C  6 ZZ      0.02979     0.05725
            138  C  6 XY      0.01253     0.06389
            139  C  6 XZ      0.00767     0.02040
            140  C  6 YZ      0.00000     0.01086
            141  C  6  S     -0.25736     0.04357
            142  C  6  X      0.11311     0.04066
            143  C  6  Y      0.06047     0.03659
            144  C  6  Z      0.01859     0.03400
            145  C  6 XX      0.00305     0.12201
            146  C  6 YY     -0.06336     0.10224
            147  C  6 ZZ     -0.13260     0.00708
            148  C  6 XY      0.00341     0.18354
            149  C  6 XZ      0.00104     0.09861
            150  C  6 YZ      0.00000     0.04824
            151  H  7  S      0.77115     0.52992
            152  H  7  S      0.64194     0.16212
            153  H  7  X      0.01996     0.03791
            154  H  7  Y      0.00360     0.01107
            155  H  7  Z      0.00566     0.01256
            156  H  7  S     -0.00225     0.01889
            157  H  7  X     -0.00753     0.06814
            158  H  7  Y     -0.02218     0.03904
            159  H  7  Z      0.00570     0.06318
            160  H  8  S      0.77115     0.52992
            161  H  8  S      0.64194     0.16212
            162  H  8  X      0.01996     0.03791
            163  H  8  Y      0.00360     0.01107
            164  H  8  Z      0.00566     0.01256
            165  H  8  S     -0.00225     0.01889
            166  H  8  X     -0.00753     0.06814
            167  H  8  Y     -0.02218     0.03904
            168  H  8  Z      0.00570     0.06318
            169  H  9  S      0.77115     0.52310
            170  H  9  S      0.64194     0.16244
            171  H  9  X      0.00769     0.01743
            172  H  9  Y      0.01587     0.03120
            173  H  9  Z      0.00566     0.01256
            174  H  9  S     -0.00225     0.01890
            175  H  9  X     -0.01852     0.04422
            176  H  9  Y     -0.01119     0.06076
            177  H  9  Z      0.00570     0.06318
            178  H 10  S      0.77115     0.52310
            179  H 10  S      0.64194     0.16244
            180  H 10  X      0.00769     0.01743
            181  H 10  Y      0.01587     0.03120
            182  H 10  Z      0.00566     0.01256
            183  H 10  S     -0.00225     0.01890
            184  H 10  X     -0.01852     0.04422
            185  H 10  Y     -0.01119     0.06076
            186  H 10  Z      0.00570     0.06318
            187  H 11  S      0.77115     0.52310
            188  H 11  S      0.64194     0.16244
            189  H 11  X      0.00769     0.01743
            190  H 11  Y      0.01587     0.03120
            191  H 11  Z      0.00566     0.01256
            192  H 11  S     -0.00225     0.01890
            193  H 11  X     -0.01852     0.04422
            194  H 11  Y     -0.01119     0.06076
            195  H 11  Z      0.00570     0.06318
            196  H 12  S      0.77115     0.52310
            197  H 12  S      0.64194     0.16244
            198  H 12  X      0.00769     0.01743
            199  H 12  Y      0.01587     0.03120
            200  H 12  Z      0.00566     0.01256
            201  H 12  S     -0.00225     0.01890
            202  H 12  X     -0.01852     0.04422
            203  H 12  Y     -0.01119     0.06076
            204  H 12  Z      0.00570     0.06318

          ----- MULLIKEN ATOMIC OVERLAP POPULATIONS -----
          (OFF-DIAGONAL ELEMENTS NEED TO BE MULTIPLIED BY 2)

             1           2           3           4           5

    1    7.6294293
    2   -2.4098224   7.6294293
    3    2.4156302  -2.2292182   7.6294262
    4   -2.2292182   2.4156302  -2.2291952   7.6294262
    5    2.4156302  -2.2292182   2.4156239  -2.4098099   7.6294262
    6   -2.2292182   2.4156302  -2.4098099   2.4156239  -2.2291952
    7   -0.3719784   0.1070837  -0.1477941   0.2759934  -0.1477941
    8    0.1070837  -0.3719784   0.2759934  -0.1477941   0.2759934
    9    0.2759914  -0.1477962   0.2760067  -0.3719788   0.1070848
   10   -0.1477962   0.2759914  -0.3719788   0.2760067  -0.1477972
   11    0.2759914  -0.1477962   0.1070848  -0.1477972   0.2760067
   12   -0.1477962   0.2759914  -0.1477972   0.1070848  -0.3719788

             6           7           8           9          10

    6    7.6294262
    7    0.2759934   1.5635541
    8   -0.1477941   0.0086834   1.5635541
    9   -0.1477972  -0.0606060  -0.0132447   1.5635561
   10    0.1070848  -0.0132447  -0.0606060  -0.0606093   1.5635561
   11   -0.3719788  -0.0606060  -0.0132447  -0.0132447   0.0086835
   12    0.2760067  -0.0132447  -0.0606060   0.0086835  -0.0132447

            11          12

   11    1.5635561
   12   -0.0606093   1.5635561

          TOTAL MULLIKEN AND LOWDIN ATOMIC POPULATIONS
       ATOM         MULL.POP.    CHARGE          LOW.POP.     CHARGE
    1 C             5.583926    0.416074         6.043841   -0.043841
    2 C             5.583926    0.416074         6.043841   -0.043841
    3 C             5.583972    0.416028         6.072856   -0.072856
    4 C             5.583972    0.416028         6.072856   -0.072856
    5 C             5.583972    0.416028         6.072856   -0.072856
    6 C             5.583972    0.416028         6.072856   -0.072856
    7 H             1.416040   -0.416040         0.942851    0.057149
    8 H             1.416040   -0.416040         0.942851    0.057149
    9 H             1.416045   -0.416045         0.933798    0.066202
   10 H             1.416045   -0.416045         0.933798    0.066202
   11 H             1.416045   -0.416045         0.933798    0.066202
   12 H             1.416045   -0.416045         0.933798    0.066202

          MULLIKEN SPHERICAL HARMONIC POPULATIONS
       ATOM           S       P       D      F      G      H      I    TOTAL
    1 C             2.95    2.74   -0.11   0.00   0.00   0.00   0.00    5.58
    2 C             2.95    2.74   -0.11   0.00   0.00   0.00   0.00    5.58
    3 C             2.95    2.74   -0.11   0.00   0.00   0.00   0.00    5.58
    4 C             2.95    2.74   -0.11   0.00   0.00   0.00   0.00    5.58
    5 C             2.95    2.74   -0.11   0.00   0.00   0.00   0.00    5.58
    6 C             2.95    2.74   -0.11   0.00   0.00   0.00   0.00    5.58
    7 H             1.41    0.01    0.00   0.00   0.00   0.00   0.00    1.42
    8 H             1.41    0.01    0.00   0.00   0.00   0.00   0.00    1.42
    9 H             1.41    0.01    0.00   0.00   0.00   0.00   0.00    1.42
   10 H             1.41    0.01    0.00   0.00   0.00   0.00   0.00    1.42
   11 H             1.41    0.01    0.00   0.00   0.00   0.00   0.00    1.42
   12 H             1.41    0.01    0.00   0.00   0.00   0.00   0.00    1.42

          -------------------------------
          BOND ORDER AND VALENCE ANALYSIS     BOND ORDER THRESHOLD=0.050
          -------------------------------

                   BOND                       BOND                       BOND
  ATOM PAIR DIST  ORDER      ATOM PAIR DIST  ORDER      ATOM PAIR DIST  ORDER
    1   2  2.816  0.179        1   3  2.439 -0.107        1   4  1.408  1.768
    1   5  2.439 -0.107        1   6  1.408  1.768        1   7  1.094  0.518
    1   9  2.173  0.131        1  11  2.173  0.131        2   3  1.408  1.768
    2   4  2.439 -0.107        2   5  1.408  1.768        2   6  2.439 -0.107
    2   8  1.094  0.518        2  10  2.173  0.131        2  12  2.173  0.131
    3   4  1.408  1.768        3   5  2.439 -0.107        3   6  2.816  0.179
    3   8  2.173  0.131        3   9  2.173  0.131        3  10  1.094  0.518
    4   5  2.816  0.179        4   6  2.439 -0.107        4   7  2.173  0.131
    4   9  1.094  0.518        4  10  2.173  0.131        5   6  1.408  1.768
    5   8  2.173  0.131        5  11  2.173  0.131        5  12  1.094  0.518
    6   7  2.173  0.131        6  11  1.094  0.518        6  12  2.173  0.131

                       TOTAL       BONDED        FREE
      ATOM            VALENCE     VALENCE     VALENCE
    1 C                 4.229       4.229       0.000
    2 C                 4.229       4.229      -0.000
    3 C                 4.229       4.229       0.000
    4 C                 4.229       4.229       0.000
    5 C                 4.229       4.229       0.000
    6 C                 4.229       4.229       0.000
    7 H                 0.726       0.726       0.000
    8 H                 0.726       0.726       0.000
    9 H                 0.726       0.726       0.000
   10 H                 0.726       0.726       0.000
   11 H                 0.726       0.726       0.000
   12 H                 0.726       0.726       0.000

          ---------------------
          ELECTROSTATIC MOMENTS
          ---------------------

 POINT   1           X           Y           Z (BOHR)    CHARGE
                 0.000000   -0.000000    0.000000        0.00 (A.U.)
         DX          DY          DZ         /D/  (DEBYE)
     0.000000   -0.000000    0.000000    0.000000
 ...... END OF PROPERTY EVALUATION ......
 STEP CPU TIME =     0.14 TOTAL CPU TIME =         43.4 (      0.7 MIN)
 TOTAL WALL CLOCK TIME=         43.5 SECONDS, CPU UTILIZATION IS    99.88%
               580000  WORDS OF DYNAMIC MEMORY USED
 EXECUTION OF GAMESS TERMINATED NORMALLY Mon Jun 21 09:54:35 2021
 DDI: 263640 bytes (0.3 MB / 0 MWords) used by master data server.

 ----------------------------------------
 CPU timing information for all processes
 ========================================
 0: 43.382 + 0.44 = 43.426
 ----------------------------------------
 ddikick.x: exited gracefully.
unset echo
----- accounting info -----
Files used on the master node compute-0-18 were:
-rw-r--r-- 1 agf18 gfam     471 Jun 21 09:53 /var/tmp/pbs.35848.masternode2/benzene_2.F05
-rw-r--r-- 1 agf18 gfam 4809840 Jun 21 09:54 /var/tmp/pbs.35848.masternode2/benzene_2.F10
ls: No match.
ls: No match.
ls: No match.
Mon Jun 21 09:54:38 -03 2021
0.227u 0.141s 0:47.87 0.7%	0+0k 1112+192io 6pf+0w
