
Host: cpn-f11-03.cbls.ccr.buffalo.edu

Timers On : Tue Jun 22 17:54:50 2021
Timers Off: Tue Jun 22 17:56:41 2021

Wall Time:      111.47 seconds

                                                       Time (seconds)
Module                                       User      System        Wall        Calls

--------------------------------------------------------------------------------------

**************************************************************************************
