
     Program PWSCF v.6.2 (svn rev. 14038) starts on 22Jun2021 at 18:57:22 

     This program is part of the open-source Quantum ESPRESSO suite
     for quantum simulation of materials; please cite
         "P. Giannozzi et al., J. Phys.:Condens. Matter 21 395502 (2009);
         "P. Giannozzi et al., J. Phys.:Condens. Matter 29 465901 (2017);
          URL http://www.quantum-espresso.org", 
     in publications or presentations arising from this work. More details at
     http://www.quantum-espresso.org/quote

     Parallel version (MPI), running on    12 processors

     MPI processes distributed on     1 nodes
     R & G space division:  proc/nbgrp/npool/nimage =      12
     Waiting for input...
     Reading input from standard input

     Current dimensions of program PWSCF are:
     Max number of different atomic species (ntypx) = 10
     Max number of k-points (npk) =  40000
     Max angular momentum in pseudopotentials (lmaxx) =  3
               file Ir.pbe-n-rrkjus_psl.0.2.3.UPF: wavefunction(s)  5D renormalized

     gamma-point specific algorithms are used

     Subspace diagonalization in iterative solution of the eigenvalue problem:
     a serial algorithm will be used

 
     Parallelization info
     --------------------
     sticks:   dense  smooth     PW     G-vecs:    dense   smooth      PW
     Min         353     140     34                17398     4383     546
     Max         356     144     36                17404     4390     556
     Sum        4257    1701    421               208801    52635    6619
 


     bravais-lattice index     =            0
     lattice parameter (alat)  =      13.3514  a.u.
     unit-cell volume          =    2380.0325 (a.u.)^3
     number of atoms/cell      =           25
     number of atomic types    =            4
     number of electrons       =        72.00
     number of Kohn-Sham states=          100
     kinetic-energy cutoff     =      30.0000  Ry
     charge density cutoff     =     300.0000  Ry
     convergence threshold     =      1.0E-04
     mixing beta               =       0.3000
     number of iterations used =            8  plain     mixing
     Exchange-correlation      = PBE ( 1  4  3  4 0 0)

     celldm(1)=  13.351425  celldm(2)=   0.000000  celldm(3)=   0.000000
     celldm(4)=   0.000000  celldm(5)=   0.000000  celldm(6)=   0.000000

     crystal axes: (cart. coord. in units of alat)
               a(1) = (   1.000000   0.000000   0.000000 )  
               a(2) = (   0.000000   1.000000   0.000000 )  
               a(3) = (   0.000000   0.000000   1.000000 )  

     reciprocal axes: (cart. coord. in units 2 pi/alat)
               b(1) = (  1.000000  0.000000  0.000000 )  
               b(2) = (  0.000000  1.000000  0.000000 )  
               b(3) = (  0.000000  0.000000  1.000000 )  


     PseudoPot. # 1 for C  read from file:
     /util/academic/espresso/6.2.1/pseudopotentials/upf_files/C.pbe-n-rrkjus_psl.0.1.UPF
     MD5 check sum: ab446d787031eba755f1d5ee46644bb0
     Pseudo is Ultrasoft + core correction, Zval =  4.0
     Generated using "atomic" code by A. Dal Corso v.5.0.2 svn rev. 9415
     Using radial grid of 1073 points,  4 beta functions with: 
                l(1) =   0
                l(2) =   0
                l(3) =   1
                l(4) =   1
     Q(r) pseudized with 0 coefficients 


     PseudoPot. # 2 for H  read from file:
     /util/academic/espresso/6.2.1/pseudopotentials/upf_files/H.pbe-rrkjus_psl.0.1.UPF
     MD5 check sum: bd57da0722753ddfd9833a65b40bb853
     Pseudo is Ultrasoft, Zval =  1.0
     Generated using "atomic" code by A. Dal Corso v.5.0.2 svn rev. 9415
     Using radial grid of  929 points,  2 beta functions with: 
                l(1) =   0
                l(2) =   0
     Q(r) pseudized with 0 coefficients 


     PseudoPot. # 3 for Ir read from file:
     /util/academic/espresso/6.2.1/pseudopotentials/upf_files/Ir.pbe-n-rrkjus_psl.0.2.3.UPF
     MD5 check sum: 0d5bc36db6a0bde07ee800c0d8fcbb77
     Pseudo is Ultrasoft + core correction, Zval =  9.0
     Generated using "atomic" code by A. Dal Corso v.5.0.2 svn rev. 9415
     Using radial grid of 1277 points,  6 beta functions with: 
                l(1) =   0
                l(2) =   0
                l(3) =   1
                l(4) =   1
                l(5) =   2
                l(6) =   2
     Q(r) pseudized with 0 coefficients 


     PseudoPot. # 4 for N  read from file:
     /util/academic/espresso/6.2.1/pseudopotentials/upf_files/N.pbe-n-rrkjus_psl.0.1.UPF
     MD5 check sum: ed8b6a90f28a53b7d71920e7015d2dd6
     Pseudo is Ultrasoft + core correction, Zval =  5.0
     Generated using "atomic" code by A. Dal Corso v.5.0.2 svn rev. 9415
     Using radial grid of 1085 points,  4 beta functions with: 
                l(1) =   0
                l(2) =   0
                l(3) =   1
                l(4) =   1
     Q(r) pseudized with 0 coefficients 


     atomic species   valence    mass     pseudopotential
        C              4.00    12.01000     C ( 1.00)
        H              1.00     1.00700     H ( 1.00)
        Ir             9.00   192.21700     Ir( 1.00)
        N              5.00    14.00600     N ( 1.00)

     No symmetry found



   Cartesian axes

     site n.     atom                  positions (alat units)
         1           Ir  tau(   1) = (   0.0012373   0.0034912   0.0010881  )
         2           N   tau(   2) = (   0.1440354  -0.2019585  -0.1693237  )
         3           N   tau(   3) = (  -0.2375242   0.0065672  -0.1687024  )
         4           N   tau(   4) = (   0.1166966   0.2137503  -0.1579539  )
         5           C   tau(   5) = (  -0.0840939   0.2254594   0.1520975  )
         6           C   tau(   6) = (   0.2026675  -0.0503368   0.1840104  )
         7           C   tau(   7) = (   0.2817189  -0.2709136  -0.0638617  )
         8           C   tau(   8) = (   0.3039183  -0.2033363   0.1242613  )
         9           C   tau(   9) = (  -0.1486969  -0.1769594   0.1379603  )
        10           C   tau(  10) = (   0.0735379   0.3814742  -0.0970899  )
        11           C   tau(  11) = (  -0.0062315   0.3943872   0.0875013  )
        12           C   tau(  12) = (  -0.3591308  -0.1287612  -0.1141881  )
        13           C   tau(  13) = (  -0.3034568  -0.2411357   0.0402755  )
        14           H   tau(  14) = (   0.2556573   0.0381418   0.3059613  )
        15           H   tau(  15) = (   0.4089587  -0.2827291   0.2133418  )
        16           H   tau(  16) = (   0.3523855  -0.3955060  -0.1316688  )
        17           H   tau(  17) = (   0.0952818   0.5057395  -0.1915119  )
        18           H   tau(  18) = (  -0.0491817   0.5341394   0.1609059  )
        19           H   tau(  19) = (  -0.1422140   0.2408579   0.2917804  )
        20           H   tau(  20) = (  -0.4005444  -0.3330764   0.1209694  )
        21           H   tau(  21) = (  -0.1334044  -0.2383203   0.2835212  )
        22           H   tau(  22) = (  -0.4911567  -0.1447466  -0.2016951  )
        23           H   tau(  23) = (   0.1306093  -0.2720052  -0.2988975  )
        24           H   tau(  24) = (   0.1591573   0.1960376  -0.2958786  )
        25           H   tau(  25) = (  -0.2702562   0.0660254  -0.2930762  )

     number of k points=     1  gaussian smearing, width (Ry)=  0.0100
                       cart. coord. in units 2pi/alat
        k(    1) = (   0.0000000   0.0000000   0.0000000), wk =   2.0000000

     Dense  grid:   104401 G-vectors     FFT dimensions: (  75,  75,  75)

     Smooth grid:    26318 G-vectors     FFT dimensions: (  48,  48,  48)

     Estimated max dynamical RAM per process >      46.16 MB

     Estimated total dynamical RAM >     553.92 MB

     Check: negative/imaginary core charge=   -0.000002    0.000000

     Initial potential from superposition of free atoms

     starting charge   71.99934, renormalised to   72.00000
     Starting wfc are   69 randomized atomic wfcs +   31 random wfc

     total cpu time spent up to now is        2.5 secs

     Self-consistent Calculation

     iteration #  1     ecut=    30.00 Ry     beta= 0.30
     Davidson diagonalization with overlap
     ethr =  1.00E-02,  avg # of iterations =  5.0

     total cpu time spent up to now is        2.9 secs

     total energy              =    -243.64968647 Ry
     Harris-Foulkes estimate   =    -244.88609005 Ry
     estimated scf accuracy    <       3.25004893 Ry

     iteration #  2     ecut=    30.00 Ry     beta= 0.30
     Davidson diagonalization with overlap
     ethr =  4.51E-03,  avg # of iterations =  1.0

     total cpu time spent up to now is        3.1 secs

     total energy              =    -243.74532309 Ry
     Harris-Foulkes estimate   =    -244.02534613 Ry
     estimated scf accuracy    <       0.78788289 Ry

     iteration #  3     ecut=    30.00 Ry     beta= 0.30
     Davidson diagonalization with overlap
     ethr =  1.09E-03,  avg # of iterations =  4.0

     total cpu time spent up to now is        3.3 secs

     total energy              =    -243.77872899 Ry
     Harris-Foulkes estimate   =    -243.87381769 Ry
     estimated scf accuracy    <       0.31189033 Ry

     iteration #  4     ecut=    30.00 Ry     beta= 0.30
     Davidson diagonalization with overlap
     ethr =  4.33E-04,  avg # of iterations =  2.0

     negative rho (up, down):  1.593E-07 0.000E+00

     total cpu time spent up to now is        3.5 secs

     total energy              =    -243.79761628 Ry
     Harris-Foulkes estimate   =    -243.81598092 Ry
     estimated scf accuracy    <       0.05449780 Ry

     iteration #  5     ecut=    30.00 Ry     beta= 0.30
     Davidson diagonalization with overlap
     ethr =  7.57E-05,  avg # of iterations =  6.0

     negative rho (up, down):  1.177E-07 0.000E+00

     total cpu time spent up to now is        3.9 secs

     total energy              =    -243.80713956 Ry
     Harris-Foulkes estimate   =    -243.80787367 Ry
     estimated scf accuracy    <       0.00459057 Ry

     iteration #  6     ecut=    30.00 Ry     beta= 0.30
     Davidson diagonalization with overlap
     ethr =  6.38E-06,  avg # of iterations =  2.0

     negative rho (up, down):  4.523E-08 0.000E+00

     total cpu time spent up to now is        4.1 secs

     total energy              =    -243.80733097 Ry
     Harris-Foulkes estimate   =    -243.80744019 Ry
     estimated scf accuracy    <       0.00093369 Ry

     iteration #  7     ecut=    30.00 Ry     beta= 0.30
     Davidson diagonalization with overlap
     ethr =  1.30E-06,  avg # of iterations =  1.0

     total cpu time spent up to now is        4.3 secs

     End of self-consistent calculation

          k = 0.0000 0.0000 0.0000 (  3310 PWs)   bands (ev):

   -18.4660 -18.1725 -17.7866 -14.3475 -13.9727 -13.8954 -11.4742 -10.8595
   -10.5434  -9.0709  -8.5349  -8.2765  -8.1862  -7.8598  -7.6837  -6.4191
    -6.0598  -5.8057  -5.3853  -5.2807  -5.0806  -4.6803  -4.3884  -4.1039
    -3.9392  -3.8436  -3.5223  -2.5515  -2.1686  -2.0278  -1.6446  -1.6157
    -1.3013  -0.4160  -0.2769   0.1133   1.9748   2.5468   2.9910   3.1018
     4.8056   5.0033   5.4696   5.4991   5.5995   5.7022   5.9634   6.0308
     6.5490   6.8721   7.1716   7.3863   7.8006   7.8235   8.1709   8.3650
     8.5089   8.8652   9.0813   9.1739   9.6866   9.7665  10.0246  10.5309
    10.9349  11.0174  11.1756  11.3049  11.4163  11.7659  11.9889  12.1786
    12.3730  12.4477  12.6284  12.7978  12.9648  13.3521  13.3752  13.7714
    13.9692  14.1458  14.3557  14.4027  14.6426  14.8373  14.8685  15.0317
    15.0993  15.1707  15.3862  15.6667  15.8898  15.9152  16.2081  16.5349
    16.6350  16.9185  17.0414  17.0917

     the Fermi energy is     1.0051 ev

!    total energy              =    -243.80747716 Ry
     Harris-Foulkes estimate   =    -243.80741607 Ry
     estimated scf accuracy    <       0.00008681 Ry

     The total energy is the sum of the following terms:

     one-electron contribution =    -344.33374473 Ry
     hartree contribution      =     196.30236962 Ry
     xc contribution           =     -93.29687946 Ry
     ewald contribution        =      -2.47922259 Ry
     smearing contrib. (-TS)   =      -0.00000000 Ry

     convergence has been achieved in   7 iterations

     Writing output data file x0.save
 
     init_run     :      0.37s CPU      0.71s WALL (       1 calls)
     electrons    :      1.78s CPU      1.90s WALL (       1 calls)

     Called by init_run:
     wfcinit      :      0.04s CPU      0.05s WALL (       1 calls)
     potinit      :      0.07s CPU      0.07s WALL (       1 calls)

     Called by electrons:
     c_bands      :      0.87s CPU      0.90s WALL (       7 calls)
     sum_band     :      0.42s CPU      0.43s WALL (       7 calls)
     v_of_rho     :      0.21s CPU      0.22s WALL (       8 calls)
     newd         :      0.27s CPU      0.58s WALL (       8 calls)
     mix_rho      :      0.03s CPU      0.03s WALL (       7 calls)

     Called by c_bands:
     init_us_2    :      0.00s CPU      0.00s WALL (      15 calls)
     regterg      :      0.85s CPU      0.88s WALL (       7 calls)

     Called by sum_band:
     sum_band:bec :      0.00s CPU      0.00s WALL (       7 calls)
     addusdens    :      0.28s CPU      0.29s WALL (       7 calls)

     Called by *egterg:
     h_psi        :      0.43s CPU      0.46s WALL (      29 calls)
     s_psi        :      0.01s CPU      0.01s WALL (      29 calls)
     g_psi        :      0.00s CPU      0.00s WALL (      21 calls)
     rdiaghg      :      0.35s CPU      0.35s WALL (      28 calls)

     Called by h_psi:
     h_psi:pot    :      0.43s CPU      0.45s WALL (      29 calls)
     h_psi:calbec :      0.02s CPU      0.02s WALL (      29 calls)
     vloc_psi     :      0.40s CPU      0.42s WALL (      29 calls)
     add_vuspsi   :      0.01s CPU      0.01s WALL (      29 calls)

     General routines
     calbec       :      0.02s CPU      0.02s WALL (      36 calls)
     fft          :      0.28s CPU      0.28s WALL (     124 calls)
     ffts         :      0.01s CPU      0.01s WALL (      15 calls)
     fftw         :      0.43s CPU      0.45s WALL (    2184 calls)
     interpolate  :      0.03s CPU      0.04s WALL (      15 calls)
 
     Parallel routines
     fft_scatt_xy :      0.04s CPU      0.04s WALL (    2323 calls)
     fft_scatt_yz :      0.20s CPU      0.21s WALL (    2323 calls)
 
     PWSCF        :     3.66s CPU         4.83s WALL

 
   This run was terminated on:  18:57:26  22Jun2021            

=------------------------------------------------------------------------------=
   JOB DONE.
=------------------------------------------------------------------------------=
