# Projected DOS for atomic kind N at iteration step i = 0, E(Fermi) =    -0.385734 a.u.
#     MO Eigenvalue [a.u.]      Occupation                 s                py                pz                px               d-2               d-1                d0               d+1               d+2
       1         -1.938313        2.000000        0.00001494        0.00000045        0.00000465        0.00000014        0.00000002        0.00000011        0.00000048        0.00000005        0.00000003
       2         -1.862898        2.000000        0.00000085        0.00000029        0.00000011        0.00000022        0.00000000        0.00000001        0.00000001        0.00000001        0.00000002
       3         -1.787360        2.000000        0.00002311        0.00000066        0.00000885        0.00000045        0.00000005        0.00000022        0.00000122        0.00000030        0.00000006
       4         -1.760465        2.000000        0.00000647        0.00000225        0.00000384        0.00000044        0.00000008        0.00000073        0.00000238        0.00000035        0.00000006
       5         -1.750548        2.000000        0.00001041        0.00000136        0.00000722        0.00000043        0.00000009        0.00000069        0.00000184        0.00000040        0.00000007
       6         -1.716056        2.000000        0.00000073        0.00000025        0.00000059        0.00000051        0.00000003        0.00000010        0.00000044        0.00000023        0.00000001
       7         -1.698964        2.000000        0.00000005        0.00000007        0.00000011        0.00000010        0.00000001        0.00000001        0.00000000        0.00000001        0.00000001
       8         -1.688238        2.000000        0.27324560        0.02497174        0.03623912        0.02793725        0.00021523        0.00098412        0.00233324        0.00166226        0.00017775
       9         -1.673894        2.000000        0.00003001        0.00000364        0.00002632        0.00000166        0.00000022        0.00000176        0.00000487        0.00000076        0.00000031
      10         -1.668790        2.000000        0.00000217        0.00000125        0.00000392        0.00000034        0.00000003        0.00000026        0.00000089        0.00000025        0.00000005
      11         -1.654758        2.000000        0.00000581        0.00000133        0.00000438        0.00000148        0.00000004        0.00000046        0.00000074        0.00000016        0.00000008
      12         -1.650097        2.000000        0.00000020        0.00000024        0.00000041        0.00000013        0.00000001        0.00000002        0.00000001        0.00000001        0.00000001
      13         -1.647301        2.000000        0.23434220        0.03227024        0.04349281        0.04263809        0.00073243        0.00132967        0.00249656        0.00132618        0.00176782
      14         -1.644831        2.000000        0.00028282        0.00003806        0.00006307        0.00004669        0.00000136        0.00000375        0.00001087        0.00000235        0.00000221
      15         -1.632971        2.000000        0.00000291        0.00000041        0.00000180        0.00000027        0.00000007        0.00000036        0.00000048        0.00000015        0.00000004
      16         -1.608182        2.000000        0.00005021        0.00001300        0.00001150        0.00000915        0.00000021        0.00000075        0.00000096        0.00000020        0.00000063
      17         -1.600464        2.000000        0.26909928        0.05038790        0.03455302        0.04801255        0.00142304        0.00369061        0.00273981        0.00073386        0.00331528
      18         -1.596002        2.000000        0.00006207        0.00001038        0.00001870        0.00000772        0.00000038        0.00000141        0.00000244        0.00000088        0.00000098
      19         -1.579249        2.000000        0.00000309        0.00000063        0.00000165        0.00000016        0.00000001        0.00000008        0.00000028        0.00000017        0.00000002
      20         -1.561803        2.000000        0.35587067        0.03314306        0.03861216        0.03392849        0.00043317        0.00030645        0.00404379        0.00025552        0.00033728
      21         -1.551568        2.000000        0.00001576        0.00000378        0.00002226        0.00000192        0.00000029        0.00000064        0.00000067        0.00000081        0.00000035
      22         -1.542873        2.000000        0.00001128        0.00000099        0.00000261        0.00000219        0.00000020        0.00000016        0.00000018        0.00000021        0.00000010
      23         -1.540810        2.000000        0.00000578        0.00000042        0.00000534        0.00000073        0.00000004        0.00000020        0.00000089        0.00000016        0.00000007
      24         -1.527261        2.000000        0.16941238        0.02305647        0.00888157        0.05032854        0.00141011        0.00039981        0.00100098        0.00043593        0.00115050
      25         -1.526414        2.000000        0.00192214        0.00026967        0.00009678        0.00058781        0.00001550        0.00000484        0.00001592        0.00000522        0.00001234
      26         -1.517554        2.000000        0.00002553        0.00000732        0.00001928        0.00000628        0.00000016        0.00000037        0.00000044        0.00000045        0.00000031
      27         -1.515591        2.000000        0.00000084        0.00000018        0.00000019        0.00000020        0.00000001        0.00000002        0.00000001        0.00000000        0.00000001
      28         -1.511020        2.000000        0.30844411        0.04316016        0.05116408        0.02610998        0.00190315        0.00062676        0.00175209        0.00037738        0.00192391
      29         -1.504237        2.000000        0.00000627        0.00000144        0.00000714        0.00000180        0.00000004        0.00000027        0.00000154        0.00000022        0.00000009
      30         -1.491784        2.000000        0.00002488        0.00000572        0.00000721        0.00000983        0.00000019        0.00000032        0.00000172        0.00000025        0.00000013
      31         -1.486668        2.000000        0.00000017        0.00000006        0.00000010        0.00000009        0.00000001        0.00000001        0.00000001        0.00000001        0.00000001
      32         -1.483611        2.000000        0.20512293        0.05720343        0.00677266        0.14080541        0.00208814        0.00355010        0.00391981        0.00244893        0.00140782
      33         -1.475578        2.000000        0.00001917        0.00000342        0.00000419        0.00001021        0.00000011        0.00000047        0.00000070        0.00000023        0.00000019
      34         -1.463067        2.000000        0.00000185        0.00000139        0.00000242        0.00000081        0.00000005        0.00000004        0.00000031        0.00000006        0.00000006
      35         -1.457711        2.000000        0.02595949        0.02212081        0.00075088        0.02739982        0.00027342        0.00045058        0.00055293        0.00105996        0.00046710
      36         -1.457216        2.000000        0.00000932        0.00000860        0.00000040        0.00000969        0.00000015        0.00000016        0.00000021        0.00000050        0.00000023
      37         -1.450993        2.000000        0.00034506        0.00009110        0.00008748        0.00008383        0.00000339        0.00000467        0.00000217        0.00000278        0.00000143
      38         -1.449790        2.000000        0.18878311        0.04491749        0.03702828        0.04721832        0.00173092        0.00194597        0.00094650        0.00115366        0.00075136
      39         -1.449110        2.000000        0.11272177        0.19994321        0.00962096        0.04413042        0.00119957        0.00479469        0.00290814        0.00257574        0.00341015
      40         -1.433073        2.000000        0.00000387        0.00000185        0.00000977        0.00000097        0.00000009        0.00000029        0.00000061        0.00000026        0.00000009
      41         -1.430919        2.000000        0.00000221        0.00000137        0.00000343        0.00000086        0.00000002        0.00000013        0.00000038        0.00000020        0.00000005
      42         -1.411594        2.000000        0.00000622        0.00000523        0.00000241        0.00000222        0.00000015        0.00000019        0.00000008        0.00000009        0.00000013
      43         -1.411369        2.000000        0.00001584        0.00001251        0.00000551        0.00000594        0.00000027        0.00000040        0.00000014        0.00000017        0.00000036
      44         -1.405424        2.000000        0.00003223        0.00001131        0.00001324        0.00000847        0.00000045        0.00000053        0.00000146        0.00000053        0.00000057
      45         -1.404708        2.000000        0.00000031        0.00000035        0.00000034        0.00000015        0.00000001        0.00000004        0.00000004        0.00000002        0.00000003
      46         -1.402834        2.000000        0.09185420        0.07651567        0.00591635        0.05108100        0.00286451        0.00262085        0.00135530        0.00067220        0.00342483
      47         -1.399770        2.000000        0.00001070        0.00000930        0.00000787        0.00000795        0.00000036        0.00000057        0.00000122        0.00000063        0.00000041
      48         -1.389987        2.000000        0.00000638        0.00000129        0.00001203        0.00000344        0.00000005        0.00000033        0.00000097        0.00000032        0.00000008
      49         -1.381422        2.000000        0.00001565        0.00000514        0.00003330        0.00000766        0.00000011        0.00000054        0.00000311        0.00000130        0.00000037
      50         -1.370606        2.000000        0.08688396        0.13811647        0.01699129        0.09865818        0.00349396        0.00178470        0.00114533        0.00144986        0.00216863
      51         -1.369414        2.000000        0.00000427        0.00000283        0.00000053        0.00000332        0.00000006        0.00000009        0.00000006        0.00000008        0.00000005
      52         -1.368873        2.000000        0.13954407        0.09361985        0.01313192        0.12069216        0.00150911        0.00327344        0.00242358        0.00296788        0.00149016
      53         -1.366658        2.000000        0.10895850        0.05498998        0.00351885        0.04409774        0.00423780        0.00038275        0.00111332        0.00142631        0.00201042
      54         -1.366386        2.000000        0.02954246        0.01481655        0.00085514        0.01212985        0.00113319        0.00010048        0.00029554        0.00039674        0.00054707
      55         -1.359278        2.000000        0.00000992        0.00000448        0.00000574        0.00000594        0.00000014        0.00000023        0.00000053        0.00000033        0.00000021
      56         -1.355798        2.000000        0.00001123        0.00000227        0.00001835        0.00000351        0.00000006        0.00000030        0.00000136        0.00000075        0.00000019
      57         -1.343372        2.000000        0.30436865        0.02461601        0.02864744        0.02254480        0.00013784        0.00584721        0.00047196        0.00029837        0.00135629
      58         -1.341640        2.000000        0.00000314        0.00000255        0.00001020        0.00000165        0.00000010        0.00000032        0.00000064        0.00000034        0.00000011
      59         -1.338016        2.000000        0.00000306        0.00000177        0.00000360        0.00000073        0.00000006        0.00000006        0.00000022        0.00000016        0.00000008
      60         -1.334641        2.000000        0.00000570        0.00000314        0.00000781        0.00000273        0.00000008        0.00000028        0.00000090        0.00000047        0.00000019
      61         -1.332829        2.000000        0.09480974        0.02325771        0.00905427        0.03096782        0.00127066        0.00081160        0.00061546        0.00079557        0.00039782
      62         -1.329830        2.000000        0.00005662        0.00001301        0.00001202        0.00002126        0.00000072        0.00000052        0.00000069        0.00000071        0.00000045
      63         -1.328729        2.000000        0.13028346        0.05967205        0.00393538        0.04328812        0.00332527        0.00096469        0.00036520        0.00151159        0.00358923
      64         -1.322162        2.000000        0.00002776        0.00001555        0.00001884        0.00001956        0.00000022        0.00000065        0.00000120        0.00000114        0.00000047
      65         -1.319100        2.000000        0.00067135        0.00054360        0.00001908        0.00044620        0.00000348        0.00001273        0.00001377        0.00001870        0.00001462
      66         -1.318526        2.000000        0.16760768        0.12846386        0.00402113        0.11017713        0.00093765        0.00307702        0.00323103        0.00444292        0.00343162
      67         -1.313549        2.000000        0.01011547        0.02930766        0.00165782        0.05816817        0.00201988        0.00208690        0.00012807        0.00218300        0.00341175
      68         -1.304222        2.000000        0.00000276        0.00000255        0.00000045        0.00000081        0.00000005        0.00000008        0.00000006        0.00000002        0.00000007
      69         -1.297982        2.000000        0.00000464        0.00000467        0.00000369        0.00000475        0.00000016        0.00000017        0.00000048        0.00000040        0.00000016
      70         -1.297812        2.000000        0.00004347        0.00005170        0.00002864        0.00001392        0.00000109        0.00000208        0.00000070        0.00000056        0.00000082
      71         -1.294084        2.000000        0.00016324        0.00034684        0.00005373        0.00010169        0.00000348        0.00000686        0.00000176        0.00000162        0.00000429
      72         -1.292383        2.000000        0.05183337        0.12429494        0.00749428        0.04770291        0.00084226        0.00210915        0.00109459        0.00062028        0.00117774
      73         -1.290824        2.000000        0.00000798        0.00002020        0.00000142        0.00000948        0.00000013        0.00000045        0.00000025        0.00000017        0.00000029
      74         -1.288305        2.000000        0.02901916        0.03895580        0.00705536        0.04363500        0.00191730        0.00132026        0.00043083        0.00151754        0.00147611
      75         -1.277634        2.000000        0.00000096        0.00000179        0.00000046        0.00000219        0.00000011        0.00000007        0.00000002        0.00000008        0.00000010
      76         -1.274738        2.000000        0.00000232        0.00000175        0.00000290        0.00000224        0.00000013        0.00000006        0.00000013        0.00000012        0.00000016
      77         -1.269182        2.000000        0.17707741        0.08847410        0.01018702        0.10475717        0.00499810        0.00138576        0.00233103        0.00165529        0.00420743
      78         -1.267929        2.000000        0.05431754        0.06867817        0.00339957        0.19997517        0.00738355        0.00136919        0.00042707        0.00512484        0.00600339
      79         -1.267030        2.000000        0.00010388        0.00011863        0.00000634        0.00035404        0.00001303        0.00000229        0.00000085        0.00000905        0.00001051
      80         -1.265209        2.000000        0.00001700        0.00000955        0.00000614        0.00002003        0.00000069        0.00000042        0.00000047        0.00000066        0.00000098
      81         -1.262566        2.000000        0.00002711        0.00000797        0.00001023        0.00002352        0.00000073        0.00000024        0.00000115        0.00000057        0.00000066
      82         -1.251160        2.000000        0.00000277        0.00000151        0.00001118        0.00000271        0.00000018        0.00000011        0.00000032        0.00000018        0.00000018
      83         -1.250995        2.000000        0.00000324        0.00000207        0.00000109        0.00000553        0.00000027        0.00000007        0.00000003        0.00000019        0.00000019
      84         -1.239581        2.000000        0.00000609        0.00000259        0.00000777        0.00000412        0.00000027        0.00000029        0.00000034        0.00000022        0.00000032
      85         -1.232838        2.000000        0.00001532        0.00001131        0.00001036        0.00001600        0.00000029        0.00000079        0.00000098        0.00000077        0.00000079
      86         -1.230556        2.000000        0.00001030        0.00001017        0.00000193        0.00001087        0.00000041        0.00000025        0.00000013        0.00000038        0.00000064
      87         -1.229643        2.000000        0.00070540        0.00024745        0.00004124        0.00042298        0.00001263        0.00000443        0.00000771        0.00001274        0.00002023
      88         -1.229155        2.000000        0.16386818        0.02663366        0.00581217        0.08303674        0.00226118        0.00081559        0.00199995        0.00253647        0.00436325
      89         -1.228655        2.000000        0.07596165        0.10352502        0.01892706        0.08809413        0.00459845        0.00194162        0.00059096        0.00214529        0.00498048
      90         -1.226676        2.000000        0.06803250        0.07360114        0.00717890        0.05189462        0.00100795        0.00207850        0.00070511        0.00205900        0.00287776
      91         -1.221221        2.000000        0.00000813        0.00001164        0.00000692        0.00000636        0.00000038        0.00000045        0.00000031        0.00000032        0.00000107
      92         -1.216157        2.000000        0.05474552        0.11808212        0.01356940        0.01454252        0.00051477        0.00167581        0.00078658        0.00046010        0.00621568
      93         -1.211884        2.000000        0.05009070        0.06949924        0.00307486        0.04984087        0.00278630        0.00347695        0.00015078        0.00134157        0.00269980
      94         -1.210558        2.000000        0.00006770        0.00024802        0.00004279        0.00002415        0.00000278        0.00000214        0.00000224        0.00000058        0.00000826
      95         -1.208642        2.000000        0.04463287        0.11282838        0.03254529        0.04661827        0.00414690        0.00055932        0.00138057        0.00016421        0.00323059
      96         -1.207305        2.000000        0.00000668        0.00001330        0.00000789        0.00001766        0.00000087        0.00000107        0.00000065        0.00000081        0.00000098
      97         -1.202454        2.000000        0.00001058        0.00001210        0.00000470        0.00002809        0.00000198        0.00000044        0.00000011        0.00000014        0.00000045
      98         -1.195706        2.000000        0.02828434        0.09525143        0.01258422        0.12971393        0.00783417        0.00260298        0.00040144        0.00079186        0.00338748
      99         -1.194322        2.000000        0.00001172        0.00004436        0.00001060        0.00005281        0.00000291        0.00000126        0.00000039        0.00000115        0.00000142
     100         -1.189576        2.000000        0.00000751        0.00000318        0.00002732        0.00000504        0.00000020        0.00000034        0.00000062        0.00000043        0.00000028
     101         -1.183128        2.000000        0.00000392        0.00000242        0.00001340        0.00000376        0.00000012        0.00000027        0.00000036        0.00000024        0.00000018
     102         -1.173548        2.000000        0.00003803        0.00013479        0.00002211        0.00009638        0.00000921        0.00000809        0.00000120        0.00000346        0.00000676
     103         -1.172726        2.000000        0.00201651        0.00850921        0.00011556        0.00603708        0.00055775        0.00040538        0.00001034        0.00018965        0.00037739
     104         -1.172601        2.000000        0.02344076        0.09790693        0.00132665        0.06910513        0.00641375        0.00468166        0.00011956        0.00216663        0.00431027
     105         -1.170339        2.000000        0.00000425        0.00001444        0.00000139        0.00000889        0.00000079        0.00000043        0.00000003        0.00000024        0.00000080
     106         -1.167024        2.000000        0.02129886        0.05969667        0.00982203        0.03014373        0.00249975        0.00093689        0.00016728        0.00064826        0.00378772
     107         -1.165006        2.000000        0.00000518        0.00001219        0.00000896        0.00000839        0.00000051        0.00000068        0.00000048        0.00000029        0.00000059
     108         -1.159016        2.000000        0.00000215        0.00000368        0.00000053        0.00000218        0.00000035        0.00000014        0.00000002        0.00000007        0.00000015
     109         -1.155927        2.000000        0.00000612        0.00000781        0.00000317        0.00000737        0.00000062        0.00000014        0.00000031        0.00000022        0.00000022
     110         -1.151809        2.000000        0.00000313        0.00000261        0.00000859        0.00000367        0.00000041        0.00000031        0.00000040        0.00000029        0.00000032
     111         -1.147577        2.000000        0.00004576        0.00011905        0.00002624        0.00007949        0.00001132        0.00000261        0.00000046        0.00000072        0.00000190
     112         -1.145954        2.000000        0.02071461        0.06648461        0.00492779        0.03438216        0.00630697        0.00129336        0.00006859        0.00033366        0.00069442
     113         -1.143270        2.000000        0.00000459        0.00000627        0.00000061        0.00000430        0.00000063        0.00000024        0.00000003        0.00000006        0.00000013
     114         -1.140707        2.000000        0.04038626        0.04300594        0.00345884        0.02558420        0.00299421        0.00145779        0.00015092        0.00042025        0.00078412
     115         -1.136261        2.000000        0.09238637        0.03134784        0.01696075        0.02753402        0.00006642        0.00025499        0.00078553        0.00273075        0.00054648
     116         -1.135050        2.000000        0.00000335        0.00000779        0.00000374        0.00000267        0.00000026        0.00000062        0.00000040        0.00000022        0.00000071
     117         -1.134519        2.000000        0.00282745        0.04059344        0.01343531        0.03288564        0.00211049        0.00024291        0.00006507        0.00022486        0.00195806
     118         -1.134294        2.000000        0.00027411        0.00352683        0.00123609        0.00300449        0.00018306        0.00002370        0.00000669        0.00001956        0.00017885
     119         -1.129474        2.000000        0.00000921        0.00001433        0.00000201        0.00000436        0.00000055        0.00000088        0.00000016        0.00000016        0.00000082
     120         -1.125909        2.000000        0.00628919        0.02863359        0.02227307        0.06753227        0.00160241        0.00044874        0.00017568        0.00009360        0.00463382
     121         -1.125224        2.000000        0.00002632        0.00009099        0.00007689        0.00019761        0.00000383        0.00000273        0.00000127        0.00000035        0.00001318
     122         -1.124470        2.000000        0.03747978        0.06473152        0.00628857        0.01142648        0.00128265        0.00402875        0.00070279        0.00022976        0.00673089
     123         -1.119116        2.000000        0.13112091        0.05994528        0.00931753        0.24883548        0.00506977        0.00117277        0.00085364        0.00442910        0.00507911
     124         -1.117416        2.000000        0.00000783        0.00000587        0.00001056        0.00001445        0.00000048        0.00000048        0.00000057        0.00000101        0.00000079
     125         -1.114567        2.000000        0.00000543        0.00000332        0.00000540        0.00000494        0.00000032        0.00000019        0.00000036        0.00000016        0.00000032
     126         -1.112757        2.000000        0.00000086        0.00000325        0.00000119        0.00000064        0.00000009        0.00000013        0.00000014        0.00000007        0.00000013
     127         -1.111710        2.000000        0.02483330        0.12918947        0.02813237        0.00904453        0.00279245        0.00243074        0.00042175        0.00041311        0.00251169
     128         -1.107244        2.000000        0.10370812        0.07774349        0.02778122        0.01343142        0.00107875        0.00094521        0.00115191        0.00063197        0.00072973
     129         -1.107176        2.000000        0.00002540        0.00001989        0.00000680        0.00000515        0.00000034        0.00000028        0.00000036        0.00000019        0.00000023
     130         -1.106786        2.000000        0.00000594        0.00000503        0.00001640        0.00000335        0.00000023        0.00000030        0.00000032        0.00000022        0.00000024
     131         -1.103906        2.000000        0.01156935        0.00877098        0.00276365        0.05952657        0.00120754        0.00022467        0.00010230        0.00100218        0.00114774
     132         -1.101573        2.000000        0.00000076        0.00000103        0.00000056        0.00000056        0.00000009        0.00000010        0.00000010        0.00000005        0.00000011
     133         -1.099223        2.000000        0.00000144        0.00000140        0.00000414        0.00000205        0.00000020        0.00000021        0.00000024        0.00000019        0.00000023
     134         -1.092395        2.000000        0.00490100        0.06219058        0.01001620        0.09969799        0.00421727        0.00081618        0.00030309        0.00059474        0.00094976
     135         -1.090563        2.000000        0.00001274        0.00004502        0.00001683        0.00007301        0.00000473        0.00000051        0.00000117        0.00000109        0.00000149
     136         -1.086614        2.000000        0.00394309        0.00383643        0.01660722        0.04175826        0.00195773        0.00042862        0.00021510        0.00026278        0.00288537
     137         -1.084483        2.000000        0.00000040        0.00000090        0.00000057        0.00000126        0.00000010        0.00000008        0.00000019        0.00000020        0.00000021
     138         -1.078929        2.000000        0.00057110        0.00239329        0.00055129        0.00111370        0.00009573        0.00000603        0.00004284        0.00000687        0.00015440
     139         -1.077763        2.000000        0.01812718        0.08059872        0.01812269        0.03511223        0.00317262        0.00013755        0.00125182        0.00021858        0.00521220
     140         -1.075994        2.000000        0.00002252        0.00009239        0.00002561        0.00004177        0.00000376        0.00000035        0.00000111        0.00000046        0.00000664
     141         -1.075123        2.000000        0.01664198        0.05170748        0.01078347        0.01629564        0.00185077        0.00049099        0.00031603        0.00079178        0.00175955
     142         -1.072366        2.000000        0.12657926        0.02955666        0.01263985        0.14609805        0.00185669        0.00043600        0.00167502        0.00486143        0.00087923
     143         -1.071672        2.000000        0.00002694        0.00011396        0.00002163        0.00003602        0.00000437        0.00000023        0.00000107        0.00000065        0.00000659
     144         -1.068221        2.000000        0.00000861        0.00003582        0.00000606        0.00000796        0.00000165        0.00000025        0.00000035        0.00000016        0.00000189