     288
 i =        1, E =     -1688.1874115975
  B        -0.1609479546       -0.4060177709       -0.1598887019
  B        -0.1829860669       -0.5896542237        0.0199206234
  B         0.0295719638        0.2984886776        0.9207942699
  B         0.1872848597        0.1580053560       -0.9835022921
  C         0.0975921185       -0.0202260804       -0.1512934876
  C        -0.6500242029        0.1298939886       -0.3786041373
  C         0.4961830223        0.1629144075        0.9719459346
  C        -0.1270848548        0.2067066961        0.0149998615
  C        -0.6406025965        0.4495811137        0.4077503773
  C        -0.6312986635       -0.9380277262       -0.1301832341
  C         0.6530895780        0.7429812640        0.5974791318
  C        -0.0568595197        0.3809349191        1.2296255405
  C        -0.1550698944       -0.2573760787        0.0784162580
  C        -0.1742730781       -0.3567325558        0.5607025145
  C        -0.1963052095       -0.1365314455       -0.5385736269
  C        -0.2415629280       -0.1330627672        0.8433663402
  C        -0.4491940292       -0.0926510236       -0.0930026415
  C        -0.2170388256        0.0079885766        0.3962899117
  C        -0.5465076664       -0.7274338641        0.4800848099
  C        -0.9194193016        0.0789158744       -0.2365923439
  C         0.0159903593       -0.7648508333       -0.2474806663
  C        -0.3555390589        0.4253450533       -0.5039363305
  C        -0.7129319775       -0.1913545905       -0.5745648834
  C        -1.1327649514        0.3375120610       -0.2847891258
  C        -0.3219693664       -0.0501423706       -0.6653140478
  C         0.6297261829       -0.2415922569        0.1455469405
  C        -0.0752472899       -0.0728094305       -0.2795916343
  C         0.0113423669        0.1036625267        0.3594499681
  C         0.8322849524        0.2792895878        0.3759212372
  C         0.8614070637        1.6825289243        0.6117132902
  C         1.3307136128       -0.0953285310       -0.8854395550
  C        -0.2477772268       -1.0017778581       -0.5755407450
  C        -0.7151401756        0.0985317206       -0.1225807186
  C         0.5708144802        1.5437661092        0.0230033314
  C         0.4644688784        0.5497820051       -0.0409195259
  C         0.5638775235        0.0706448668        0.1887852136
  C        -0.4826736786        0.5979073863        0.2198882532
  C        -1.3037923741        0.8824511328       -0.2922745118
  C        -0.8508953012        0.0049691822       -0.2396764001
  C         0.1031498251        0.6788905001       -0.3662956943
  C         0.3977171137       -0.6276575121        0.0346462859
  C        -0.4404068475       -0.2806698486        0.6224200026
  C        -0.1173697817       -0.9796452425       -0.1149689030
  C        -0.2951968448        0.2565493852        0.2373359683
  C         1.0665231693       -0.3417813587       -0.0217123219
  C         0.8156942145        0.2781343158        0.4135343141
  C        -0.1470283590        0.0257903979       -0.6755715389
  C         0.1346311154        1.3945869975        0.0883507538
  C        -0.3430587760       -1.4595715910        0.0820491808
  C        -0.2004764221        0.8195961572       -0.2781062545
  C        -0.5179644871        0.0495736726       -0.3967605159
  C         0.4716946291       -0.1381361263        0.0804490326
  C        -0.5978331362       -0.6370555946       -0.1046869749
  C         0.7579569863        0.3611412037       -0.3604014423
  C         0.6735888464        0.4291744419       -0.0162928164
  C        -1.1404601376       -0.8773065769        0.9753956869
  C        -0.7799575858        1.2892201005        0.3395859023
  C        -0.3977926606       -0.1657583363        0.2636167069
  C         1.3066218762        0.4732613437       -0.1077710414
  C         0.0752499261        0.2043272847        0.0493793767
  C        -0.4270535957       -0.0369679322       -0.8612284594
  C         0.0788834026       -0.5014460624        0.9664798372
  C        -0.1351250028        0.2071460210       -0.0974088409
  C         1.0462273148        1.1044509409       -0.0061848841
  C         0.1269855039        0.3319068771        0.3688665921
  C        -1.3259339050        0.2351962890       -0.0811441726
  C        -0.5890378885       -0.3541440750        0.0646153872
  C         0.6124477789       -0.1993380507        0.0540677818
  C        -0.9138915917       -0.4179028271       -0.2039893678
  C         0.4245650812        0.0023470378        0.1206058642
  C        -0.3813841951       -1.2088731301        0.2537781020
  C        -0.9221427978        0.1793812714       -0.0547754255
  C         0.9811459952        0.1874285477        0.0775387616
  C         0.3506858694       -1.0030664790        0.7212219248
  C        -0.0484211204       -0.4179339105        0.5194324586
  C        -0.6650621962       -0.4775357495        0.7001064753
  C         0.4214847301       -0.5876799071        0.0933140026
  C        -0.1301880961        0.0902384900        0.2918256579
  C        -0.8338250906        0.4068166799        0.0116908421
  C        -1.2028080559       -0.0520911198        0.6244061309
  C         0.6577954739       -0.0619900729        0.2740886734
  C         0.3210533876       -0.4317254142        0.5066029276
  C        -0.9175143304        0.7219543696        0.2763638950
  C         0.4293502222       -0.2467019204       -0.4903897600
  C        -0.5148595983       -0.5996003740       -0.1216799731
  C        -0.2897978777        0.2088743871       -0.1022873830
  C         0.1577244375       -0.2943737069       -0.0033754706
  C        -0.0295018993        0.3011598846        0.0087416803
  C        -0.0245972653       -0.2374586925       -1.1794791699
  C        -0.0286640407        0.2757083391       -0.4425690266
  C        -0.4189455521        0.5876075187       -0.7975531109
  C        -0.5098509877        0.0777289274       -1.0729683664
  C         0.0241577234        0.1718016759       -0.1625842287
  C        -0.0958503472        0.6062087133       -0.6890310265
  C        -0.8298920285        0.4611558795       -1.1650428518
  C         0.1304421305       -0.4790390180       -0.2946524077
  C         0.1437461294        0.0262027699        0.1265320457
  C        -0.3662344806        0.3300641476       -0.6559410986
  C        -0.5799104157        0.8335767819        0.3425539054
  C         0.2524862442        0.1528076650        0.6421582049
  C        -0.1382897248        0.6341506278       -0.7370876274
  C        -0.5084318474       -0.2433488272        0.1909298767
  C         0.1058462966       -1.3431534226        0.1835014328
  C        -0.0398948115       -1.6199341102       -0.2193962952
  C        -1.3711426393       -0.1649595824        0.9141349138
  C        -0.5875706555        0.2606890575        0.1736055136
  C         0.6692988576       -0.4770703253       -0.0630459997
  C         0.9155426082       -0.2811304387        0.1822793907
  C         0.1554844081       -0.0727318452       -0.5059669582
  C         0.1354374108       -0.4208951228       -0.0272327712
  C        -0.1801131301        0.4750065932        0.6595787480
  C         0.4967571395       -0.9329688387        0.0160703532
  C         0.0202197149        0.2692149366        0.3806631407
  C        -0.5060235406       -0.7872703951       -0.3690244760
  C        -0.3236390888       -0.4900387656        0.0568477069
  C        -0.0971131910       -1.6797582606       -0.0785175546
  C        -0.5927926632       -1.2670663707        0.5054779298
  C         0.3297447445        0.0082094038       -0.3746569478
  C        -0.1479518777        0.6042935885        0.9274849865
  C        -0.6538942537       -0.4929054710       -0.8087228401
  C        -0.1107271576        0.3015436782       -0.6759647250
  C         0.3777597465       -0.5128120635       -0.0635052288
  C        -0.4989814837        0.2252234150        0.4923481215
  C         0.0582249998        0.2876986411        0.6249395969
  C        -0.8282981063       -0.4336662447       -1.1650846789
  C         0.8613942596       -0.6958904475        0.0769834448
  C         0.4689396585        0.2843699824        0.7502271090
  C         0.1058811461       -0.0113444132        0.4455608759
  C         0.0686523518       -0.1973293421       -0.2159413688
  C         0.1361665749       -0.1221372181        0.4012847129
  C         0.0188515403        0.0330771606       -0.0132547697
  C         1.1845138662       -1.0005395387       -0.9336315237
  C         0.8967152537       -0.2606358828       -0.3088144302
  C         0.1836911109        0.5753500271       -0.4980761640
  C        -1.0823297656       -0.3322803082        1.2731269693
  C        -1.3219875633        0.2753007693        0.5790526610
  C        -0.4111512448       -0.6526915613       -0.4996693429
  C         0.8234414937        0.9267975833       -0.3279100006
  C         0.3857994539        0.2450029674        0.5079078107
  C        -0.0274830877       -0.2963048243       -0.1681534444
  C         0.0876895027        0.3967526429        0.3197728654
  C        -0.6565214193        0.1956470482       -0.4670315700
  C         0.1020186362        1.1807683006        0.0240725598
  C         0.9889276960       -0.1121870760       -0.1258504686
  C         0.3982368559        0.5467525260       -0.3567665057
  C         0.4695430913       -0.1270153855        0.8711460935
  C         0.8575135951       -0.1638569542        0.7952946398
  C        -0.5763045148        0.2923217115       -0.2292239263
  C        -0.0694919281        0.4520075955        0.5402155440
  C         0.1931962397       -0.7667561915       -0.4497379091
  C        -0.9018149665        0.5733653043       -1.0160985634
  C         1.1664498304       -0.1359882734        0.7236931814
  C        -0.2183525072        0.4342790243        0.4796546680
  C         0.4368122468        0.9437284935       -0.4459877969
  C         1.4237955519       -0.9243961428        0.1622599327
  C        -0.1702273184       -0.2627527299        0.4066354434
  C         1.4543710740       -0.3006629314        0.7507875335
  C        -0.5916454430        0.4349343479       -0.2181876994
  C        -0.5080245838       -0.5811633729        0.2774325577
  C         0.3789559675       -1.7095163944        0.1056901402
  C         0.4115809666       -0.2961098140       -0.6653445341
  C         0.8921872252        1.0508715322       -0.3382540582
  C         0.7007964347       -0.0118652981       -0.4831989509
  C        -0.7519512329       -0.0840953678       -0.0650387953
  C        -1.2341700711        0.0294936130       -0.0483591391
  C         1.3488493590        0.3621243692       -0.4963347611
  C         1.1244558504        0.4411929703        0.5001104788
  C         1.2986794995       -0.1725413629        0.1805920268
  C        -1.4274578558        1.0570245221       -0.0257177860
  C         1.4522664430       -1.3736477692       -0.1955862662
  C         1.6846601217       -0.3002858069       -0.5192551328
  C        -0.1686205016        0.3035392466       -0.4218335747
  C        -0.2983630642        0.0628082054        0.3399427350
  C         0.0114173271       -0.4090653917       -0.2195142827
  C        -0.1869440201       -0.6543266776        0.5938319518
  C        -0.7589478710        0.8091098106        0.4452265175
  C        -0.8101655895        0.4560777239       -0.6082076059
  C        -0.3218516771        0.2870931876       -0.1824501294
  C         0.2620791247       -0.1958154519       -0.0632179638
  C        -0.0125849849        0.7780275945        0.5427212880
  C        -0.7050629195       -0.5753718532        0.1803688740
  C        -0.5275858073       -0.4326007227       -0.0673227084
  C         0.7430089987        0.7454942931       -0.3440382480
  C         0.0539672002       -0.6513304047       -0.2844596631
  C         0.1678258004        0.0139444033       -0.1827675595
  C        -0.1197550337        0.0064936697       -0.7997361785
  C        -0.0941891305        0.3708379071       -0.3029091732
  C        -0.7291834878        0.4572796228        0.2583091054
  C        -0.7101196482       -0.1743504733       -0.6248928723
  C         0.2638146070        0.2275311168        1.3049940553
  C        -0.1149229021       -0.4061127256       -0.6060784183
  C         0.0166165241       -0.0752326694        0.3814013163
  C         0.1242940806       -0.1142593348        0.4533104130
  C        -0.4763445853       -0.3697771249        0.7672516752
  C        -0.7309198770       -0.7557177591       -0.3722746631
  C         0.2961138312       -0.1957778407       -0.7347452932
  C         0.4705951707       -0.1523535608       -2.3664763882
  C        -0.4873378350       -0.1537743246        0.6748382451
  C         1.5436339144       -0.4240817203       -1.1145182767
  C         0.1917130740        0.7559598890       -0.2526022192
  C         0.7257555664        0.5599430482       -1.0879847698
  C         0.6101770280        1.7981549030       -0.4048710839
  C         0.2476703670        0.9509572201       -0.4287424899
  C         0.7008222013        0.9966208589       -0.3226257657
  C        -0.0029551167       -0.2080107393        0.3452747353
  C        -0.3179234792       -0.3598924560        0.0419851584
  C         0.5977762702       -2.1255496246       -0.1405005737
  C         0.4149922113       -0.2961848460       -0.2767793611
  C         0.5642895902        1.2195178609        0.3172976361
  C         0.2278403539       -0.6479185891        0.4518923843
  C        -0.1236079957       -0.5813568247       -0.5269313805
  C        -1.0530119387       -0.8364052978       -0.5068650485
  C         1.4881833257        0.0113241351        0.6329971206
  C         0.6947329957        0.8373210322       -0.6000059352
  C         0.1964438127        0.5145814894       -0.1741096155
  C         0.0927665793        0.6530074243        0.3661811738
  C        -0.0934811268        0.2963824783       -0.3683831697
  C        -0.4088210768       -0.8223940005        0.8583909620
  C         0.1500695843       -0.0777101029        1.1421002028
  C         0.4526820402        0.3595957520       -0.5716521013
  C         0.5523225325        0.4444126536        0.4491094102
  C         1.0603958896        2.2428894191        0.6221773919
  C         1.0587021471        0.5184004238        0.9632265542
  C         0.2809042073       -1.4758830665       -0.3294581254
  C         0.7219310213       -0.0744956022       -0.6657096495
  C         0.7295668959        0.6941420856        1.8490986319
  H         0.0362730110       -0.1124359866       -0.0795058652
  H         0.4643750898        0.2117784621       -0.2483614160
  H         0.1829822669        0.0418797883       -0.0892190065
  H         0.2860257104        0.2519963315        0.1229723858
  H         0.1072739762       -0.0808506769        0.1083295204
  H        -0.1265764485        0.0914613567        0.3521256185
  H        -0.0453951670       -0.0121353992        0.0063159272
  H        -0.0749715832        0.0542071519       -0.2655877237
  H         0.2312283621       -0.2070582105       -0.1328320547
  H        -0.1142645219        0.0989106643       -0.0457166977
  H         0.2131162238       -0.0775728611        0.2625619465
  H         0.2171306936        0.0395503106        0.0344630673
  H        -0.0614541010        0.0758308951        0.0404348980
  H         0.2416091077        0.1191072353       -0.0306811238
  H         0.0503873645        0.0389806106        0.0190508971
  H         0.1548503455        0.3788647522       -0.0311736790
  H         0.3821089154        0.2315934441        0.0211856543
  H        -0.2488992292        0.2069332527       -0.1142128236
  H         0.0140443229        0.3627498732        0.0407045954
  H        -0.0639500661        0.1622140537        0.0159572958
  H        -0.0834724374       -0.0413279917       -0.1611003355
  H         0.1451924638        0.4993753431       -0.0427242268
  H         0.1649813800        0.0794464843        0.3291622777
  H        -0.1924388302        0.1340533688        0.2121924731
  N         0.1599846515       -1.1218529073       -0.4582257368
  N        -0.3330387521       -0.5293398608       -0.4602454817
  N         0.4268022507       -0.3553044504        0.5553062006
  N         0.6676614942       -0.0016684887       -0.2231105346
  N        -0.2962521325       -0.2461337622        0.5439903434
  N         0.2713377073       -0.9345746991       -0.7097531540
  N        -1.2977757334        1.0008966277        0.7481136253
  N         0.4785793336        0.5669940264       -0.2206944278
  N         0.3402525686        0.6881269004        0.0631561672
  N        -1.3369347104        0.4670223893       -0.2692423280
  N         1.8741736295        0.5799996387       -1.1431846672
  N        -1.1826851967       -0.6553581557        0.0749625495
  N        -0.5353810840       -0.2090750124        0.1796437113
  N        -0.5787329788        0.5345331248        0.0953749580
  N        -0.5031366956        0.4307211376        0.0783197205
  N        -1.2172672203       -1.5656591054        0.1228884298
  N        -1.0907096670        0.2233902712       -0.2932502351
  N        -1.4240947497       -0.8770938188       -0.7847415313
  N         0.6331438783        0.2471445087        0.8705547179
  N        -1.2189306260       -2.4625291578        0.4363118648
  N        -0.3891214455        0.2026896366       -0.1388160060
  N        -0.7727751489       -0.5161480462       -0.2873231653
  N        -0.2140376404        0.2938862664        0.1722181233
  N         0.0311613670        0.4737516566       -0.0677269980
  S        -0.2290962421        1.7829668744       -0.3808548211
  S        -0.3724595744       -0.4410472164       -0.5545460428
  S        -0.0489941892        1.5670530235       -0.1195847609
  S         0.0626303007       -0.9054653262        0.7628371879
  S        -0.4491023865       -0.5297746753       -0.2612837385
  S         0.2301261973       -1.6752276387       -1.8073109947
  S        -0.1388928743        0.8892877774       -0.3300052653
  S         0.4250498081       -1.2975004088        2.0314895627
  S        -0.4034132170       -0.5854890096        0.1863165453
  S         0.5944835010        2.5248837588       -0.1790004384
  S         0.1989352383       -1.5059281448        0.7073033069
  S         0.6144699804        1.7772650968        0.8930671015
  H        -0.0275629418        0.0888198652        0.1283876679
  H        -0.0249357466       -0.0447441639        0.0364848573
     288
 i =        2, E =     -1697.3347563516
  B        -0.2530933871       -0.3116639679       -0.1835074592
  B        -0.1792328037       -0.5349785845        0.1758687747
  B         0.2006884119        0.3019872225        1.0047501395
  B         0.2802332939        0.1911166656       -1.0656621436
  C         0.0214221839       -0.0408573319       -0.0615510061
  C        -0.5303292314        0.1934483455       -0.4834806323
  C         0.4375067044        0.0884869823        0.9835950906
  C        -0.1188654032        0.3532291730       -0.4419556151
  C        -0.4499148078        0.3746048838        0.1228131062
  C        -0.6112524354       -0.8952354869       -0.0567091318
  C         0.6239380599        0.7340790286        0.2668265694
  C        -0.2276349242        0.3356534340        1.1347874831
  C         0.0116848789       -0.4299427916       -0.1841592996
  C        -0.3452448052       -0.4268430676        0.4186737176
  C        -0.0718664781       -0.0148644614       -0.5176701782
  C        -0.0393845707       -0.2353093355        1.0644230453
  C        -0.5025705447       -0.1906695236        0.0202871510
  C        -0.2720706974        0.3116744507        0.5284326457
  C        -0.3775656118       -0.5488861587        0.4201096909
  C        -0.6677084522        0.2347611803       -0.0532580213
  C         0.4041409133       -0.7244240287        0.4013690018
  C        -0.5304743791        0.6100086123       -0.6315316952
  C        -0.6875900888       -0.0794239141       -0.7185518129
  C        -0.9355815727        0.0801531432       -0.2713537952
  C        -0.2118479517        0.0055760717       -0.0920657800
  C         0.6243104284       -0.1913808370        0.3295674977
  C        -0.0804536516       -0.2020706185       -0.0808516214
  C        -0.0091728293        0.1853793134        0.3678083527
  C         0.8204637165        0.3438621745        0.3447159023
  C         0.6456982898        1.3953021416        0.5938255537
  C         1.1629639938        0.0393085588       -0.6801662035
  C        -0.1700694363       -1.1329895673       -0.4993850076
  C        -0.6691651437        0.0417102244       -0.1770142393
  C         0.3262408282        1.7337019407        0.0187381412
  C         0.3605636527        0.7541528677        0.0488589784
  C         0.7382765226        0.1077197395        0.2741643351
  C        -0.3533257270        0.5603308980        0.2388615124
  C        -1.2382316210        0.8997889720       -0.1994719422
  C        -0.7640674986       -0.1642827568       -0.0693601794
  C         0.0150146108        0.7445233254       -0.3369745364
  C         0.3070939434       -0.4378575308       -0.0015638155
  C        -0.3266970375       -0.3410620920        0.5550284513
  C        -0.2836980423       -0.8040186316       -0.1105956306
  C        -0.3665809778        0.3069361996        0.2185760783
  C         0.8236100173       -0.1130867805        0.0748137927
  C         0.6859535256        0.3061206599        0.3393345522
  C        -0.1161718400       -0.1150929759       -0.9246664867
  C        -0.0296531497        1.4421856915        0.0453610466
  C        -0.3273314047       -1.5703909071        0.1008358556
  C        -0.1805996824        0.7922614862       -0.1415958305
  C        -0.2757520583        0.0273665117       -0.4690665476
  C         0.5627635615       -0.0523793966       -0.3072702419
  C        -0.5711487374       -0.7284206898       -0.1751001217
  C         0.6802044982        0.3345253298       -0.1961099405
  C         0.8335913293        0.6691097989       -0.0493213608
  C        -1.2199704904       -1.0120528339        1.1029724245
  C        -0.9485575293        1.1471661033        0.1820338658
  C        -0.7001050059       -0.0399335881        0.2698618884
  C         1.3595175253        0.4292780379       -0.0793322338
  C         0.1605843428        0.0874020527        0.0130903742
  C        -0.4503341395        0.0770516370       -0.9535644962
  C         0.2741843768       -0.5533371609        0.9085462096
  C        -0.1515501405        0.2294705695        0.0268316344
  C         1.3254991315        1.0866292151        0.0178965852
  C         0.1811630111        0.4362898635        0.1877630687
  C        -1.2592084032        0.2945188144       -0.0927918416
  C        -0.4767276241       -0.3610507199        0.0304129347
  C         0.7169272760       -0.1651001158        0.0101016664
  C        -0.8083610065       -0.3997121261       -0.1612413564
  C         0.3855281729       -0.0942873148        0.1851063755
  C        -0.2951569287       -1.2195944399        0.1987245991
  C        -0.8297919090        0.1429707626        0.0547177561
  C         1.0002979244        0.1672597875        0.2354826245
  C         0.4029176658       -0.9039121897        0.6198995903
  C        -0.1125745105       -0.3697708409        0.4695868782
  C        -0.5602265454       -0.5622140848        0.7681680773
  C         0.7830848797       -0.6324702000        0.2051621079
  C         0.0890544127       -0.0826644601        0.2126799154
  C        -0.8469969400        0.4794442791       -0.1114469776
  C        -1.1904122924       -0.1728335622        0.6593999568
  C         0.4388039186        0.1183962918        0.0680734963
  C         0.0414221766       -0.3170066438        0.3182559471
  C        -0.8761808610        0.7089207911        0.2893229059
  C         0.4931430850       -0.3250281534       -0.3913479646
  C        -0.4212703347       -0.6112978401       -0.1156887350
  C        -0.3257754246        0.2932269122        0.0780329041
  C         0.1421243381       -0.2548432002       -0.1935253339
  C        -0.0060526513        0.2780321754       -0.3156947277
  C        -0.0367407393       -0.2401442400       -1.0429271280
  C        -0.0599657039        0.1314174202       -0.1841123256
  C        -0.4167749030        0.5503986197       -0.7770746748
  C        -0.4598365575        0.2299465997       -0.6588403126
  C         0.1316643372        0.0180704555       -0.2844798956
  C        -0.1596003105        0.6218051066       -0.1294456796
  C        -0.6694880656        0.3557689293       -0.9252823857
  C         0.1436023033       -0.5879330421       -0.4029388865
  C         0.1879388510       -0.1906208995       -0.0228179151
  C        -0.0087872385        0.1392792672       -0.3182699380
  C        -0.6019376405        0.6145703470        0.5724475563
  C         0.3049567016        0.0677958133        0.7930696023
  C        -0.0359997476        0.5401494198       -0.6112509155
  C        -0.2467770350       -0.3862572485        0.1501295761
  C         0.2943658270       -1.5841793816        0.1441313508
  C         0.0715018382       -1.4933288378       -0.3661086534
  C        -1.2855271761       -0.3210443534        1.2014014945
  C        -0.4277590726        0.1514969104        0.2187062303
  C         0.7869344206       -0.4918055327        0.0168747760
  C         0.9627573633       -0.2962574420       -0.0334234069
  C         0.1957774594       -0.1102424683       -0.3310369407
  C         0.2174148108       -0.3634317287        0.1626318089
  C         0.1557478628        0.3022115739        0.7275175764
  C         0.5025627142       -1.0498681802       -0.0656776506
  C         0.0038319196        0.3747783781        0.3039505516
  C        -0.5897083185       -0.8457079811       -0.6255759148
  C        -0.3491376100       -0.4801332358       -0.3492562504
  C        -0.0451864531       -1.4946040315       -0.2840497856
  C        -0.5240209330       -1.1367894487        0.1588054693
  C         0.2253069222        0.0481110257       -0.6607978300
  C        -0.0289768287        0.8798516401        0.8254582656
  C        -0.8261411003       -0.3908968971       -0.9684773878
  C        -0.2993809306        0.3864850432       -1.0003769799
  C         0.3282538362       -0.5810929218        0.0079948481
  C        -0.4158426580        0.0438772377        0.4350713056
  C        -0.1254587904        0.1815045193       -0.1859406227
  C        -1.0237894334       -0.2325294762       -1.5858234523
  C         1.3491619439       -0.8252194574        0.3659727928
  C         0.1250888254        0.4779984806        0.7903222770
  C         0.1295730714       -0.0285619384        0.4503880138
  C         0.1537066695       -0.2032024289       -0.3819541425
  C         0.0214406365       -0.0624214545        0.3662914358
  C         0.0655242415       -0.1671042704       -0.0008635030
  C         0.6848763310       -0.3958529709        0.3003345084
  C         0.8354995350       -0.2235110199       -0.0104428053
  C         0.1204246228        0.6187583003       -0.4258492775
  C        -1.1501508448       -0.2514867686        0.9729806589
  C        -1.2712277303        0.3019346039        0.5581311038
  C        -0.4019295604       -0.8221032482       -0.5031994205
  C         0.7385590608        0.9360357688       -0.4595766027
  C         0.3056471693        0.1415041008        0.6369059239
  C        -0.1223796398       -0.3214485004       -0.2455040728
  C         0.1474134995        0.3633343070        0.2842525358
  C        -0.5159822464        0.1712902628       -0.8648926295
  C         0.0460646879        1.1694376749       -0.0712096724
  C         1.1537281558       -0.0105231942       -0.0195114275
  C         0.8154028630        0.4763182614       -0.2092528077
  C         0.4023843358        0.0126689250        1.0052623181
  C         0.5444652648       -0.0743359554        0.8496805663
  C        -0.5419950171        0.3043115158       -0.5575040911
  C         0.1066452024        0.5406969693        0.7203731819
  C         0.0455010891       -0.6562784128       -0.5358167670
  C        -0.6446452942        0.3629610389       -1.0261876368
  C         0.9643663739       -0.0617512784        0.5631801878
  C        -0.5126384734        0.6077095438        0.4372366007
  C         0.0444999177        1.1938966838       -0.4398664413
  C         1.0954430939       -0.6313375159       -0.0458450010
  C        -0.5621160515        0.0951429765        0.3186981034
  C         1.4861692782       -0.0244449443        0.3966718309
  C        -0.5773132281        0.3088633388       -0.0065404987
  C        -0.3749100817       -0.8154853436        0.2241219381
  C         0.2209227842       -1.5979572398        0.1188393829
  C         0.2805968499       -0.2658028433       -0.7130804019
  C         1.0558718209        1.1217646823       -0.2597976876
  C         0.6741006455        0.1175436150       -0.3983436920
  C        -0.7351212144       -0.1196372800        0.1228069566
  C        -1.3141713345        0.0465825546       -0.1098732978
  C         1.4298938381        0.2030641281       -0.5475089774
  C         1.1967126460        0.4139512403        0.7089426843
  C         1.2904673561       -0.0604757143        0.3905727361
  C        -1.3368855547        0.9026865548       -0.2566015296
  C         1.1698517697       -1.4001328732        0.1034479641
  C         1.6433203385       -0.3541322668       -0.5299505271
  C        -0.2886866659        0.4263163734       -0.5081292600