     288
 i =        1, E =     -1688.1874115975
  B         3.9322107028        8.7597511307       22.2567121006
  B         4.0395145451        8.6627756771        7.2091691088
  B        15.5413789245        2.0140272259       12.6152099318
  B        15.4659361467        2.0857482993       16.8805952610
  C         2.9952683981        6.9015953090       20.9213397842
  C         1.7720056249        6.6954762567       20.1693648221
  C         6.6614669153        6.6753192453       21.0986725940
  C         5.2408460690        6.9201322170       21.2632627534
  C        -0.1345014988        8.0520369414       19.4801107684
  C         1.0218124119        7.8875679489       20.2141688128
  C         7.3757034799        5.5150719733       20.9669161495
  C         1.7874653389        8.8497965007       21.0274200690
  C         1.3651758375        5.6377450595       19.3946999771
  C         4.0070436869        8.5340247488        4.4597846444
  C         3.8202600152        8.6669206015       23.7958173711
  C         3.9700041089        8.5571434436        5.6728515621
  C         3.7904611663        8.6891000975       25.0198236733
  C         5.3414871853        6.8243252496        8.2297330763
  C         1.1153596815        7.7820219549        9.2365391784
  C         1.8608933764        6.5872530184        9.2697248486
  C         1.4562924635        5.5204162402       10.0432893647
  C        -0.0305409838        7.9425661591        9.9690189784
  C        -0.4336140730        6.8838280613       10.7784019825
  C         0.2945505784        5.6989550969       10.8158777305
  C         3.0850059599        6.7992370267        8.5120427233
  C         1.8930129146        8.7333712023        8.4442500421
  C         7.4654477341        5.4158538535        8.5186157411
  C         6.7532809152        6.5812887977        8.4072071790
  C        -2.5777109485        5.6191379373       11.7573680637
  C       -10.6463215740       19.7108347706       12.5830640197
  C         4.1762180878        0.1121551034       11.2932225266
  C         3.4389851182        1.2140787749       11.7172173559
  C        -1.8754488614        4.4171192368       11.7638124472
  C       -11.2906155178       19.3784853947       13.8289307194
  C         4.1431795792        2.3255515608       12.3513901345
  C       -10.1030367153       17.4799695542       13.1138784612
  C        -6.4024870389       18.5626972248       11.8197673511
  C         2.0439757391        2.0835883418       13.4084634383
  C         3.2641747746        2.8403214505       13.3958188525
  C        -7.6041883564       17.7964891227       11.8198596851
  C        -8.6930038552       18.6569857513       11.5100795998
  C        -9.9380959799       18.5148976226       12.1425970626
  C        -7.7794055794       16.7662189411       12.7689748260
  C         2.1648444539        1.0774941898       12.3768016482
  C         6.2649706570        1.0825336764       12.0981242918
  C        -6.7206542140       19.9137776008       11.5017959880
  C         5.5028766970        2.2536542432       12.5322216341
  C        -5.3924188496       18.3146484624       12.7534297753
  C        -9.0619178499       16.6086314009       13.4275028543
  C         4.2327856668        2.6852548598       16.8266552141
  C        -5.0115534471       17.7000270938       14.9780216051
  C         3.5016000634        6.4588832057       15.4951651958
  C         3.1915100479        2.9292016516       15.8619742911
  C       -10.7084123947       17.6483581136       15.4797106443
  C       -10.8123477939       18.6362310137       16.5345971330
  C         2.0144078378        2.1891482975       15.8831301933
  C         1.4428824238        1.7816322260       14.6309868246
  C        -5.5791607508       17.2492505658       13.7394325933
  C         4.7530567834        6.2972449743       14.7600775236
  C        -9.6274713676       16.7655079858       15.8185679800
  C       -11.1596470445       19.9379504315       16.1994527411
  C       -10.9614283955       17.9875966380       14.1798032588
  C         5.9270144974        6.6780473856       15.3343211146
  C         0.9284783971        0.4630156049       14.8326188122
  C         1.8536987747        1.1669686860       16.8613598234
  C        -8.8348912583       16.2676736562       14.8040123253
  C        -6.7598756862       16.5104374506       13.7458234269
  C        -7.3736582478       16.1893252460       15.0032563167
  C        -6.8437454177       16.6128964423       16.1974732884
  C        -5.6049093115       17.3905946795       16.1928626618
  C         3.8308634536        3.2368702125       14.6093680148
  C        -7.7132465170       19.3419156343       18.2965550087
  C         2.8665271843        0.9048695008       17.7803113501
  C        -5.7045715713       18.3621681327       17.2502055720
  C        -7.6753810936       17.1280755472       17.2623479764
  C        -0.5255576362        6.9849247431       18.6683518955
  C        -2.6852983311        5.7011118800       17.7081925517
  C        -1.9596886897        4.5145177161       17.7038140791
  C        -9.1337054139       19.4158619907       18.1085228631
  C         0.2047971543        5.7946094423       18.6353624328
  C         4.0769705479        1.6655169396       17.7803761593
  C         5.1677463471        0.7749255360       18.1027722851
  C        -7.0036329431       18.2364732839       17.8924269345
  C        -9.7801725203       18.3610410520       17.4934860175
  C        -9.0587267241       17.1932396914       17.0629217708
  C         2.5090850845       13.3512790445       21.1899740842
  C         2.8289053421       10.8074098038       21.4188988530
  C         3.2358104701       12.1883584349       21.2948459389
  C         2.9207303863       10.7112747148        8.0388882019
  C         3.3270771317       12.0893751946        8.1977211984
  C         2.5967350982       13.2573960724        8.3034206378
  C         2.6818486630        7.8706131785       12.2939954476
  C         2.0422590773       10.1041441064       12.1099928493
  C         5.0202362230        8.2204108244       11.6172925188
  C         1.7983837558       11.2714564333       12.8092123911
  C         1.6827215375        8.8245829109       12.6844678761
  C         3.0816150529        6.8961936279       13.2259823546
  C         5.4110698496        7.2048426819       12.5706217285
  C         3.6684027821        8.5607144384       11.5119451381
  C         3.2832218049        9.9236620165       11.3970509399
  C         4.4703364332        6.5647486104       13.3489122468
  C         1.0823647132        8.7745445693       13.9537227882
  C         1.2071115367       11.1883428351       14.1474840251
  C         1.8255594314       12.1775593336       14.9689812897
  C         5.9183005072        7.2544050648       16.6725031620
  C         1.4889415599        7.7663402060       14.8949202811
  C         0.8665480356        9.9817114746       14.6898657321
  C         2.4897422560        6.8319218557       14.5425218987
  C         1.1156639432        9.7225943215       16.0818737936
  C         1.5155681775        8.3380156095       16.2124284504
  C         3.4988838572        7.0340231979       16.7708733619
  C         3.1267443572        8.9701040800       17.9596666326
  C         2.0771591590       11.9532480826       16.3239049930
  C         2.7260542014       10.2965734208       17.8403010548
  C         1.7060094717       10.6758960837       16.9005058507
  C         4.7499769608        7.3941646546       17.3626401925
  C         2.4879159101        7.9622018042       17.1417962182
  C         4.5191782562        8.6366506420       18.1061300831
  C         3.7220339241       11.3467431182       17.8699432975
  C         8.6866176765        7.9654143875       21.0813679148
  C         9.4149507385        6.7920139033       21.0214583063
  C         7.3279993501        7.9107478342       21.2141298573
  C        10.9675997682        4.2432297404       20.2944249401
  C         6.3115365928        8.9183720401       21.5479596143
  C        11.4373466217        3.0830851954       19.6489225108
  C         8.7530465505        5.5501164685       21.0263915552
  C        11.6555181853        5.4598148455       20.1439997480
  C         6.4077031308        8.8246707431        7.9783354434
  C         8.7913997211        7.8877696886        8.4005320916
  C         7.4234212217        7.8287206650        8.2829647652
  C         9.5104100344        6.7080444386        8.4592496740
  C         8.8751039571        5.4471822481        8.4162588231
  C        11.5676425371        3.0080873129        9.7929932718
  C        12.6881339009        3.1111774734       10.5706267445
  C        11.7252598435        5.3687021940        9.3604556823
  C        12.8453844960        5.4784738380       10.1520518089
  C        11.0759084589        4.1437044373        9.1716271989
  C        17.9775689908        2.1449025890       11.9801951346
  C        14.5554482791        4.0574720463       11.5375737382
  C        18.9111037103        3.1920485648       11.8670775662
  C        16.7757015955        4.0828269882       11.9809558307
  C        13.4650898119        2.0864254308       11.2015695790
  C        18.1759440002        4.4336718702       11.8623599366
  C        20.2980829408        3.1938632878       11.7676295547
  C        18.8169946472        5.6277516718       11.7383697072
  C        16.9160113489        0.1775069672       11.5464722245
  C         7.2966819313        0.8174188771       13.0824421726
  C        14.6484755240        0.1539301482       11.2019538516
  C         7.1765989664        1.8169985424       14.1204877226
  C         6.0890140079        2.6794133513       13.7835538297
  C        13.3301350552        4.3473812349       10.7516709705
  C        -4.6849016236       19.3771256656       13.4049021277
  C        15.3197709966        1.9641325834       15.3671818329
  C        15.3697995881        1.9380565442       14.1293416448
  C         6.5972489071        1.9559330883       16.4964368800
  C        -4.4583426601       19.0027636980       14.7774148190
  C        -4.5339632116       19.9581996420       15.7940121515
  C         7.4065768975        1.4686280354       15.4344141220
  C         5.5013048012        2.8185450669       16.1827402478
  C         5.2740826367        3.1567973451       14.8000867575
  C        14.4586415951        4.1274669836       17.9296385152
  C        18.7385500423        5.7250519805       17.7145211741
  C        17.8866115378        2.2142660569       17.5152579532
  C        13.3695628093        2.1626436939       18.2679440291
  C        12.7495541669        5.5560194683       19.3265099880
  C        16.7057208816        4.1694632790       17.5099204658
  C        12.6022533863        3.1924468847       18.8921471007
  C        20.2208852528        3.2863644596       17.7098037316
  C        13.2221943452        4.4387842310       18.7011020933
  C        18.8520356122        3.2632747010       17.6172809449
  C        18.1117995432        4.4983260577       17.6166768350
  C        16.8210085874        0.2737493814       17.9775312732
  C        14.5656265955        0.2344609501       18.3080198496
  C         6.3887459935        0.9223874633       17.4732278243
  C        -5.1942010142       19.6223680854       17.0482456240
  C         4.4137493136       17.1386346131       20.2683214292
  C         3.1840083884       14.5518031200       21.2293790505
  C         4.5935587353       14.5745583666       21.1965528099
  C         5.1111928231       10.8444242464       21.6054743027
  C         4.6633444650       12.2166793227       21.3818375163
  C         3.0148140902       17.0904474836       20.4341887563
  C         5.3273705876       13.3876810897       21.2449110603
  C         2.2288088822       18.0183449996       19.7718022699
  C         5.0203348226       18.0393840914       19.4228395209
  C         5.2039875319       10.7550005446        7.8853543446
  C         5.4236870667       13.2924360771        8.2800732296
  C         4.7530136065       12.1144614082        8.1355513518
  C         3.2731415703       14.4526943252        8.2888526997
  C         4.6768194555       14.4628336704        8.3285391426
  C         2.3072894175       17.9220139234        9.7565023883
  C         3.1104311176       16.9978612865        9.0764189773
  C         4.5117287261       17.0301640720        9.2657855673
  C         5.1078587583       17.9624083387       10.0976397365
  C         2.8849180930       18.8541114716       10.5616021426
  C         4.2854520410       18.8638732562       10.7352807599
  C         6.2561699456       11.5700226224       12.3569206352
  C         6.0234380986        9.2420883264       11.6033461840
  C         5.6287460023       10.5737728334       11.5194300273
  C         7.0592264531        8.8673637811       12.5934634397
  C         6.6701848605        7.6188618615       13.1848180382
  C         5.2505377739       12.5469819569       12.7161538969
  C         7.6368613263        9.8635729315       13.4040254305
  C         7.2318759844       11.2208066008       13.2888441324
  C         4.2476733206       10.9285408307       11.3851538305
  C         2.8068891719       12.2953878301       12.8490119312
  C         3.9898580918       12.1192834079       12.1456715521
  C         4.0284532319       13.2338262091       14.7406205291
  C         5.2553129927       13.0857050661       14.0156478597
  C         7.2504397134       11.8160028349       14.6192614911
  C         2.8214876331       12.8656833560       14.1734481185
  C         7.5334362339        8.3371045086       15.3547041781
  C         7.6267673751       10.7559165975       15.5483442657
  C         6.9579664500        8.2904024163       16.6800283630
  C         6.2818807165       12.7290693127       14.9640680652
  C         7.8887552056        9.5722388694       14.8109855367
  C         4.2714900841       13.0189446589       16.1537158288
  C         6.9121003360        7.3526065110       14.5276481864
  C         6.0509925644       11.6716809626       17.2062076533
  C         4.2168346697       18.9651342648       18.7957259558
  C         3.3304769165       12.3639051954       16.9094129654
  C         2.8161942351       18.9576128447       18.9734521009
  C         5.6847286082       12.7021693805       16.2968611145
  C         7.0872552986       10.7327747380       16.8502564752
  C         5.0787628055       10.9870009366       18.0115903659
  C         5.4812698535        9.6364739226       18.1271758484
  C         6.7251279169        9.4650340592       17.4316713856
  H         6.8669323526        4.5518104177       20.8892021996
  H        -0.6815481869        8.9657564793       19.4791430493
  H         1.9453041710        4.7224634124       19.3496900434
  H        -0.5890907631        8.8630747003        9.9607671298
  H         2.0350363386        4.6146653121       10.0970651513
  H         6.9661997383        4.4656797002        8.5911802661
  H         1.4337549650       13.3385591941       21.1635829785
  H         1.5224524170       13.2396531501        8.3308521877
  H         9.2154646346        8.9167074777       21.1159942976
  H        10.9422789218        2.1563083899       19.7940885246
  H         9.3121814917        8.8337566995        8.3847418439
  H        11.0543017136        2.0711025214        9.6654577947
  H        13.3735187409        6.4182336469       10.2540368580
  H        20.8547846043        2.2789734155       11.7472026671
  H        18.2707682108        6.5452832596       11.7051369025
  H        18.1778148783        6.6426114912       17.7583859908
  H        20.7701139800        2.3768427580       17.7400812544
  H        13.2745092712        6.5001264605       19.2171935088
  H         6.4174703764       13.4235518042       21.2289141671
  H         1.1425046981       17.9962866592       19.9122150534
  H         6.0930252582       18.0681266405       19.3074624514
  H         6.5104883918       13.3261200866        8.3134843809
  H         6.1826465779       17.9821241031       10.2175245408
  H         1.2282609374       17.9080901663        9.6013268945
  N         4.1554799503        6.2246550864       20.9072801025
  N         2.8400556036        8.1244270872       21.4696611319
  N         5.1803197642        8.1883609715       21.6997708182
  N         5.2844045531        8.1116459689        7.8253607593
  N         2.9403414031        8.0282045767        7.9846554991
  N         4.2590731213        6.1313499710        8.5270248950
  N         1.6881322055       10.1847694418       21.0949406833
  N         3.9673308167       10.1680989397       21.7409552078
  N         4.0623237667       10.0705083689        7.7217681891
  N         1.7775673113       10.0753137467        8.3718342208
  N        16.8131286073        2.7518396137       12.1863139480
  N        14.4452255032        2.7267768920       11.8455320939
  N        15.6902302353        0.7100574962       11.8618866681
  N        15.6456328426        4.7661968097       11.6911407374
  N        18.0387655949        0.8446204194       11.7003764563
  N        13.4865286539        0.7558774485       10.9591078354
  N        14.3537182913        2.8223850403       17.6237910567
  N        15.5835543996        0.7797516396       17.6419203665
  N        16.7022794489        2.8318417664       17.3139115596
  N        13.4042152946        0.8154407175       18.5479380012
  N        17.9532251346        0.9273040744       17.8189117008
  N        15.5590541677        4.8236965438       17.7849307511
  N         6.2974367530       10.2486047258       21.5537039199
  N         6.3937730962       10.1616538126        7.9580872320
  S        -1.7952466414        7.1786196937       11.8311108547
  S        -0.1378596757        4.3982324839       11.8830348421
  S        -1.8860105473        7.2731593231       17.6063717000
  S        -0.2217844358        4.4896990959       17.5703045026
  S         9.5893583525        4.0580857120       21.3209863953
  S        11.1573728857        6.8277198311       21.0280722444
  S         9.6996594460        4.0046399084        8.1326080797
  S        11.2593247319        6.7491892551        8.4455227950
  S         2.2608122855       15.9772174837       21.5168717109
  S         5.4687953345       16.1281505504       21.2150630430
  S         2.3615004558       15.8601356332        8.0217743051
  S         5.5624927494       16.0106759034        8.3435674583
  H         4.0317625014        8.5249113317        3.3698954790
  H         3.7705261003        8.7039808813       26.1002371032
     288
 i =        2, E =     -1697.3347563516
  B         3.8403274315        8.6438831640       22.1825167171
  B         3.9471242884        8.5436881788        7.1862860195
  B        15.3808900943        1.9951400904       12.5913941533
  B        15.3086519161        2.0637133871       16.8089386047
  C         2.9277379488        6.8158415426       20.8516302546
  C         1.7034957385        6.6151000438       20.0987347597
  C         6.5673295690        6.5961500338       21.0482262623
  C         5.1475994046        6.8380976700       21.1963839844
  C        -0.1925226261        7.9604658451       19.4258737643
  C         0.9543292689        7.7731715127       20.1470925799
  C         7.2839144515        5.4608371292       20.9110533733
  C         1.7175240622        8.7472544069       20.9824228773
  C         1.3155745850        5.5641858402       19.3347746167
  C         3.9163571656        8.4207853344        4.4561258218
  C         3.7288532873        8.5572076757       23.7098995814
  C         3.8773555552        8.4479136730        5.6692149563
  C         3.6950574512        8.5804611438       24.9379082223
  C         5.2468027341        6.7386374756        8.2099845558
  C         1.0489732257        7.6713487636        9.2154537660
  C         1.7875561358        6.5061671586        9.2354389749
  C         1.4094777697        5.4381309209       10.0054588521
  C        -0.0829500425        7.8505290532        9.9280531583
  C        -0.4827394829        6.7943756659       10.7338455753
  C         0.2376335815        5.6344554120       10.7761751760
  C         3.0099183135        6.7132315209        8.4721626966
  C         1.8351136090        8.6197232211        8.4191807022
  C         7.3609081675        5.3476865796        8.4859627811
  C         6.6504621862        6.5006419475        8.3867879492
  C        -2.5711170854        5.5542592568       11.7267646618
  C       -10.6436257446       19.4946606323       12.5539429908
  C         4.1593408228        0.1099388052       11.2407829523
  C         3.3940642914        1.1822463603       11.6692681380
  C        -1.8964395136        4.3643864884       11.7240685459
  C       -11.2853688788       19.1632105971       13.7851429984
  C         4.0983078314        2.3068182100       12.3109510663
  C       -10.0988551609       17.2621841063       13.0752132200
  C        -6.4585965431       18.3408719675       11.7858560615
  C         1.9881056408        2.0744626627       13.3602680797
  C         3.2004342522        2.8062442754       13.3483221365
  C        -7.6335474394       17.5856615819       11.7753609107
  C        -8.7115635507       18.4117138632       11.4740785403
  C        -9.9593412787       18.2779655418       12.1152734006
  C        -7.8046313827       16.5383104936       12.7260414467
  C         2.1322499324        1.0693975088       12.3415252472
  C         6.2182455477        1.0634256844       12.0590234059
  C        -6.7575598677       19.6690963453       11.4727004566
  C         5.4340900842        2.2271421110       12.4805159717
  C        -5.4452264996       18.1101372487       12.7143470854
  C        -9.0784513910       16.3747586460       13.3859891787
  C         4.1723882052        2.6677228944       16.7676117479
  C        -5.0767874132       17.4793713649       14.9232997163
  C         3.4384017922        6.3763556383       15.4478460083
  C         3.1327950733        2.8824278728       15.8097646115
  C       -10.6955513389       17.4339589599       15.4232383799
  C       -10.8062166533       18.4101398604       16.4816282568
  C         1.9616256032        2.1475480220       15.8495414936
  C         1.4044450721        1.7838862660       14.5907434736
  C        -5.6329773463       17.0301043127       13.7002821178
  C         4.6940048373        6.2279091855       14.7108511221
  C        -9.6324139895       16.5598083737       15.7689424559
  C       -11.1772335917       19.6874745298       16.1322855702
  C       -10.9607545351       17.7534246564       14.1520840776
  C         5.8287283220        6.5989201847       15.2831799840
  C         0.9344521580        0.4783911322       14.7849837280
  C         1.8308437167        1.1595810632       16.8145452313
  C        -8.8698123939       16.0683184390       14.7552150430
  C        -6.8027547125       16.2974826228       13.7031106428
  C        -7.3869487673       15.9832055376       14.9563629476
  C        -6.8921217161       16.3975512225       16.1418539653
  C        -5.6453424458       17.1733830397       16.1431233461
  C         3.7680952035        3.1756854432       14.5674910897
  C        -7.7694626254       19.1033526134       18.2368582033
  C         2.8508936591        0.8985539872       17.7244001933
  C        -5.7509859508       18.1145103985       17.2083694067
  C        -7.7028862117       16.9063895750       17.2167032580
  C        -0.5737624768        6.8901103195       18.6208489590
  C        -2.6868218629        5.6204000563       17.6529685198
  C        -1.9706522495        4.4611600995       17.6525585390
  C        -9.1749338560       19.1802094047       18.0511863684
  C         0.1471250772        5.7223637633       18.5869813060
  C         4.0398571743        1.6447387365       17.7286760794
  C         5.1198541758        0.7586963271       18.0544410459
  C        -7.0601747079       18.0215611918       17.8402158635
  C        -9.7865629888       18.1272820251       17.4284137114
  C        -9.0821239357       16.9675135263       17.0062263726
  C         2.4017484890       13.1885533139       21.1200737589
  C         2.7411578711       10.6679131059       21.3513388211
  C         3.1326751238       12.0422910540       21.2277978284
  C         2.8300076858       10.5729706377        7.9918596617
  C         3.2241927928       11.9431244281        8.1630956969
  C         2.4872020522       13.1016885458        8.2626985834
  C         2.6008235072        7.7737646080       12.2347041906
  C         1.9636655930        9.9815332908       12.0681683395
  C         4.9225827917        8.1287467401       11.5658410231
  C         1.7002100625       11.1390459810       12.7474357602
  C         1.6173609278        8.7062098676       12.6389374425
  C         3.0142398147        6.8114249160       13.1862857075
  C         5.3094791413        7.1216632501       12.5178381688
  C         3.5726487297        8.4694252448       11.4804634961
  C         3.1982288805        9.8026805843       11.3719140366
  C         4.3863194904        6.4949693854       13.2929223621
  C         1.0108122308        8.6612178450       13.9126034640
  C         1.1317141227       11.0251008540       14.1058820470
  C         1.7359154566       11.9963137630       14.9174107814
  C         5.7946029308        7.1617592471       16.6347276427
  C         1.4181812706        7.6746812678       14.8503439367
  C         0.8116194170        9.8487911987       14.6415651319
  C         2.4423587331        6.7421840907       14.4998136506
  C         1.0506074015        9.6003215220       16.0208439427
  C         1.4543515664        8.2267035161       16.1596976003
  C         3.4200854153        6.9558679535       16.7288714432
  C         3.0531100496        8.8421378349       17.9026914325
  C         1.9878052061       11.8086663903       16.2783612406
  C         2.6306493956       10.1545801657       17.7772447694
  C         1.6213121222       10.5340313907       16.8484948109
  C         4.6594186051        7.2720117201       17.3057905228
  C         2.4065904190        7.8403411782       17.0967859947
  C         4.4314383622        8.5292708501       18.0425312688
  C         3.6168521779       11.2156884614       17.8288513082
  C         8.5452421138        7.8578548644       20.9995376483
  C         9.2834310286        6.7135588705       20.9431484891
  C         7.2182554234        7.8039801803       21.1445711081
  C        10.8281013245        4.1961474478       20.2384241567
  C         6.2000641592        8.8133074098       21.4917721757
  C        11.2952514148        3.0376201435       19.5657880969
  C         8.6509435874        5.4699782500       20.9601316279
  C        11.5208373196        5.3974323799       20.0925712108
  C         6.2968971950        8.7141346670        7.9603772924
  C         8.6621857090        7.7856929839        8.3702969618
  C         7.3094827085        7.7286309151        8.2636264398
  C         9.3805832559        6.6254446263        8.4319141043
  C         8.7807662283        5.3602451516        8.3700278875
  C        11.4556975611        2.9664651600        9.7558414583
  C        12.5517857759        3.0832572646       10.5281946901
  C        11.5624900803        5.2956940060        9.3541586777
  C        12.6665373420        5.4152617729       10.1300835092
  C        10.9385039989        4.0809019767        9.1333761733
  C        17.8081954878        2.1354956126       11.9362729517
  C        14.3996849930        4.0121239828       11.5094744309
  C        18.7111987790        3.1476183634       11.8263616194
  C        16.5927437379        4.0397024529       11.9484999130
  C        13.3119428721        2.0646849618       11.1581757038
  C        17.9783223932        4.3999878606       11.8250825214
  C        20.1024912510        3.1523294761       11.7276471092
  C        18.6101110263        5.5677962497       11.6941107445
  C        16.7619212328        0.1735382099       11.5249244079
  C         7.2378967417        0.8052909731       13.0549025331
  C        14.4970015319        0.1582175231       11.1627460843
  C         7.0955606196        1.8031051005       14.0846760235
  C         6.0186303012        2.6329509302       13.7318729146
  C        13.1603777039        4.3042017056       10.6993063504
  C        -4.7318273987       19.1319710767       13.3754247815
  C        15.1583036813        1.9482448808       15.3270909196
  C        15.2201561238        1.9313798030       14.0758468657
  C         6.5487664804        1.9155586288       16.4467774603
  C        -4.5288663483       18.7595068782       14.7376622136
  C        -4.5813156130       19.7025747045       15.7579329956
  C         7.3161565097        1.4595178598       15.3806231395
  C         5.4224230199        2.7745655333       16.1360546440
  C         5.2121883269        3.0876027890       14.7546472468
  C        14.3036500031        4.0717425871       17.8603448678
  C        18.5411253250        5.6730784208       17.6515061773
  C        17.7151120961        2.1873694981       17.4502743902
  C        13.2150672611        2.1355053736       18.2079131071
  C        12.5727882440        5.4882457460       19.2638613429
  C        16.5454357534        4.1254254831       17.4449996443
  C        12.4829091370        3.1619340313       18.8401727288
  C        20.0315205001        3.2430211499       17.6556936516
  C        13.0435502899        4.4038797729       18.6411301013
  C        18.6793045600        3.1990743870       17.5566931260
  C        17.9428529064        4.4378533589       17.5509304029
  C        16.6554153574        0.2770307338       17.9126450665