# Projected DOS for atomic kind H at iteration step i = 1, E(Fermi) =    -0.122602 a.u.
#     MO Eigenvalue [a.u.]      Occupation                 s                py                pz                px
       1         -0.932434        2.000000        0.00204952        0.00143583        0.00027260        0.00132282
       2         -0.932404        2.000000        0.00205323        0.00143897        0.00027216        0.00132981
       3         -0.931026        2.000000        0.00208954        0.00135069        0.00032227        0.00142970
       4         -0.930907        2.000000        0.00208526        0.00134271        0.00031908        0.00143433
       5         -0.893909        2.000000        0.00193900        0.00138235        0.00006545        0.00130772
       6         -0.893905        2.000000        0.00193367        0.00138718        0.00006638        0.00129716
       7         -0.893189        2.000000        0.00201295        0.00130211        0.00022837        0.00135603
       8         -0.893046        2.000000        0.00201477        0.00129519        0.00022461        0.00135902
       9         -0.892503        2.000000        0.00192166        0.00132185        0.00020039        0.00122931
      10         -0.892412        2.000000        0.00193088        0.00132784        0.00020320        0.00123437
      11         -0.891711        2.000000        0.00199358        0.00125810        0.00022582        0.00133089
      12         -0.891561        2.000000        0.00199451        0.00126563        0.00022465        0.00132349
      13         -0.853224        2.000000        0.00000310        0.00014910        0.00010559        0.00012747
      14         -0.848869        2.000000        0.00003066        0.00007882        0.00017773        0.00010226
      15         -0.835573        2.000000        0.00000316        0.00004042        0.00002370        0.00002198
      16         -0.835333        2.000000        0.00000387        0.00003060        0.00006175        0.00003217
      17         -0.835136        2.000000        0.00000340        0.00000739        0.00001076        0.00002272
      18         -0.831089        2.000000        0.00001185        0.00005096        0.00005503        0.00008669
      19         -0.830940        2.000000        0.00000301        0.00002525        0.00002533        0.00000750
      20         -0.830877        2.000000        0.00000881        0.00002255        0.00007701        0.00005334
      21         -0.819779        2.000000        0.00245091        0.00138800        0.00016047        0.00110729
      22         -0.819604        2.000000        0.00273628        0.00138832        0.00006816        0.00145079
      23         -0.819590        2.000000        0.00247912        0.00130004        0.00015738        0.00121393
      24         -0.819484        2.000000        0.00264107        0.00144632        0.00004334        0.00132622
      25         -0.819386        2.000000        0.00178823        0.00112179        0.00007634        0.00096383
      26         -0.819225        2.000000        0.00187724        0.00115437        0.00010150        0.00099231
      27         -0.818843        2.000000        0.00221695        0.00101673        0.00014078        0.00132920
      28         -0.818827        2.000000        0.00227528        0.00104015        0.00014099        0.00135393
      29         -0.800063        2.000000        0.00000380        0.00000639        0.00001120        0.00000349
      30         -0.799906        2.000000        0.00000586        0.00001080        0.00002056        0.00000573
      31         -0.799807        2.000000        0.00000417        0.00000502        0.00001317        0.00000297
      32         -0.799782        2.000000        0.00000808        0.00000107        0.00000306        0.00000901
      33         -0.799722        2.000000        0.00000819        0.00000095        0.00000303        0.00000748
      34         -0.795698        2.000000        0.00013417        0.00007106        0.00000760        0.00008433
      35         -0.795613        2.000000        0.00065968        0.00047548        0.00007612        0.00022948
      36         -0.795472        2.000000        0.00003116        0.00000624        0.00001581        0.00004600
      37         -0.795432        2.000000        0.00005992        0.00002993        0.00002269        0.00003179
      38         -0.795409        2.000000        0.00015973        0.00011768        0.00001569        0.00004151
      39         -0.792653        2.000000        0.03873705        0.01426914        0.00061154        0.01333342
      40         -0.792470        2.000000        0.03877172        0.01436739        0.00061368        0.01325985
      41         -0.789716        2.000000        0.03406509        0.01777409        0.00078851        0.00861087
      42         -0.789588        2.000000        0.03414711        0.00891171        0.00082703        0.01752033
      43         -0.789549        2.000000        0.03413886        0.01739576        0.00077943        0.00897233
      44         -0.789378        2.000000        0.03420075        0.00813393        0.00083465        0.01826290
      45         -0.776526        2.000000        0.00288612        0.00117576        0.00004412        0.00106546
      46         -0.776360        2.000000        0.00310054        0.00124333        0.00004602        0.00114557
      47         -0.775379        2.000000        0.00155296        0.00049322        0.00002889        0.00057314
      48         -0.775275        2.000000        0.00136110        0.00042499        0.00002606        0.00050252
      49         -0.768398        2.000000        0.03848485        0.01306378        0.00019591        0.01273979
      50         -0.768226        2.000000        0.03854258        0.01323094        0.00019179        0.01259379
      51         -0.763228        2.000000        0.00001651        0.00000848        0.00001262        0.00000770
      52         -0.763169        2.000000        0.00000948        0.00000338        0.00000396        0.00000888
      53         -0.763111        2.000000        0.00000413        0.00000070        0.00000107        0.00000148
      54         -0.762134        2.000000        0.04083450        0.01989826        0.00012964        0.00737631
      55         -0.762065        2.000000        0.04150499        0.00847736        0.00018342        0.01915047
      56         -0.762002        2.000000        0.04171532        0.01871463        0.00014740        0.00901421
      57         -0.761837        2.000000        0.04137756        0.00787307        0.00015664        0.01966154
      58         -0.758808        2.000000        0.00052003        0.00015107        0.00000908        0.00014196
      59         -0.758774        2.000000        0.00086714        0.00033140        0.00001000        0.00017492
      60         -0.758722        2.000000        0.00043304        0.00017331        0.00000657        0.00007834
      61         -0.731529        2.000000        0.00000591        0.00000448        0.00000531        0.00000311
      62         -0.731481        2.000000        0.00001092        0.00000475        0.00000699        0.00000522
      63         -0.731449        2.000000        0.00000410        0.00000202        0.00000172        0.00000305
      64         -0.731347        2.000000        0.00000423        0.00000169        0.00000114        0.00000340
      65         -0.728904        2.000000        0.00463601        0.00397959        0.00132655        0.00392005
      66         -0.728761        2.000000        0.00458891        0.00392277        0.00131345        0.00389288
      67         -0.727388        2.000000        0.00008203        0.00007695        0.00001416        0.00008068
      68         -0.727211        2.000000        0.00003863        0.00002269        0.00001644        0.00003877
      69         -0.727137        2.000000        0.00007833        0.00004699        0.00002663        0.00004440
      70         -0.727073        2.000000        0.00000348        0.00000283        0.00000540        0.00000729
      71         -0.714420        2.000000        0.00952830        0.00476340        0.00123387        0.00475427
      72         -0.714256        2.000000        0.00955362        0.00476579        0.00120610        0.00480661
      73         -0.714231        2.000000        0.00961310        0.00487652        0.00110259        0.00482330
      74         -0.714092        2.000000        0.00961619        0.00487525        0.00113747        0.00477374
      75         -0.710764        2.000000        0.04057177        0.01104340        0.00073430        0.00874350
      76         -0.710530        2.000000        0.04055078        0.01159008        0.00073906        0.00816951
      77         -0.709454        2.000000        0.03809525        0.00984158        0.00085974        0.00919733
      78         -0.709206        2.000000        0.03817986        0.01119886        0.00084912        0.00786609
      79         -0.709131        2.000000        0.03800491        0.00833998        0.00084140        0.01071968
      80         -0.708807        2.000000        0.03816215        0.00634037        0.00086493        0.01272918
      81         -0.691026        2.000000        0.00352856        0.00237285        0.00094793        0.00240647
      82         -0.690715        2.000000        0.00346720        0.00238683        0.00097034        0.00243514
      83         -0.685334        2.000000        0.00000810        0.00000102        0.00000217        0.00000646
      84         -0.685243        2.000000        0.00000554        0.00000194        0.00000049        0.00000164
      85         -0.685204        2.000000        0.00000854        0.00000361        0.00000390        0.00000265
      86         -0.685125        2.000000        0.00000654        0.00000410        0.00000312        0.00000159
      87         -0.684940        2.000000        0.00000757        0.00000210        0.00000246        0.00000270
      88         -0.683841        2.000000        0.05596916        0.01104991        0.00019953        0.01066186
      89         -0.683701        2.000000        0.05586397        0.01105504        0.00019530        0.01062040
      90         -0.681001        2.000000        0.00017440        0.00003259        0.00000804        0.00004606
      91         -0.680959        2.000000        0.00020553        0.00004337        0.00001269        0.00004364
      92         -0.680907        2.000000        0.00028373        0.00004487        0.00000907        0.00006778
      93         -0.680874        2.000000        0.00006585        0.00001364        0.00000500        0.00001724
      94         -0.680836        2.000000        0.00011271        0.00002435        0.00000328        0.00002713
      95         -0.671447        2.000000        0.07776050        0.02070381        0.00022897        0.00671893
      96         -0.671313        2.000000        0.07756106        0.02043169        0.00023533        0.00691890
      97         -0.671264        2.000000        0.07830002        0.00716477        0.00029424        0.02036357
      98         -0.671074        2.000000        0.07840280        0.00692912        0.00028500        0.02063546
      99         -0.670015        2.000000        0.00217288        0.00341568        0.00101992        0.00196778
     100         -0.669865        2.000000        0.00263805        0.00191319        0.00095701        0.00368573
     101         -0.669846        2.000000        0.00219611        0.00183224        0.00096505        0.00363558
     102         -0.669687        2.000000        0.00203714        0.00345351        0.00102411        0.00188857
     103         -0.668161        2.000000        0.00001125        0.00000251        0.00000133        0.00000881
     104         -0.668106        2.000000        0.00000503        0.00000534        0.00000171        0.00000314
     105         -0.667934        2.000000        0.00002036        0.00000581        0.00000528        0.00000729
     106         -0.667798        2.000000        0.00000622        0.00000233        0.00000098        0.00000406
     107         -0.666488        2.000000        0.00769202        0.00353954        0.00103008        0.00341059
     108         -0.666394        2.000000        0.00763126        0.00354530        0.00103376        0.00337689
     109         -0.663878        2.000000        0.00005765        0.00001310        0.00000823        0.00001197
     110         -0.663841        2.000000        0.00001921        0.00001069        0.00000600        0.00000721
     111         -0.663778        2.000000        0.00012443        0.00003241        0.00001205        0.00002500
     112         -0.663738        2.000000        0.00006586        0.00001238        0.00000913        0.00000772
     113         -0.639410        2.000000        0.01711490        0.00216228        0.00149947        0.00216874
     114         -0.637940        2.000000        0.01869143        0.00222480        0.00178540        0.00235638
     115         -0.637311        2.000000        0.03708870        0.00879054        0.00122248        0.00539294
     116         -0.637208        2.000000        0.03708188        0.00880194        0.00122843        0.00536324
     117         -0.637052        2.000000        0.03749804        0.00568579        0.00104685        0.00886181
     118         -0.636925        2.000000        0.03734272        0.00564473        0.00105564        0.00884040
     119         -0.636334        2.000000        0.02874864        0.00500119        0.00026566        0.00492692
     120         -0.636263        2.000000        0.02892241        0.00501564        0.00025472        0.00497609
     121         -0.617496        2.000000        0.02468914        0.00087184        0.00763872        0.00074724
     122         -0.617095        2.000000        0.01295182        0.00103670        0.00246440        0.00088779
     123         -0.616886        2.000000        0.00827224        0.00103931        0.00042616        0.00102750
     124         -0.616867        2.000000        0.00892685        0.00105361        0.00069489        0.00100773
     125         -0.616281        2.000000        0.05166990        0.00047982        0.01896799        0.00062035
     126         -0.615695        2.000000        0.07528173        0.00021915        0.02856676        0.00035768
     127         -0.614795        2.000000        0.00001258        0.00000285        0.00000246        0.00000333
     128         -0.614521        2.000000        0.00000473        0.00000105        0.00000219        0.00000816
     129         -0.614078        2.000000        0.00001813        0.00000784        0.00000255        0.00000495
     130         -0.613816        2.000000        0.00000082        0.00000051        0.00000167        0.00000389
     131         -0.613676        2.000000        0.00000105        0.00000098        0.00000117        0.00000109
     132         -0.610350        2.000000        0.00001864        0.00000187        0.00000707        0.00000214
     133         -0.610129        2.000000        0.00004658        0.00000517        0.00001725        0.00001342
     134         -0.610040        2.000000        0.00006589        0.00000510        0.00002488        0.00000524
     135         -0.609980        2.000000        0.00003438        0.00000458        0.00001574        0.00000597
     136         -0.609880        2.000000        0.00001380        0.00000148        0.00000390        0.00000146
     137         -0.608976        2.000000        0.01084980        0.00030159        0.00353603        0.00031665
     138         -0.605945        2.000000        0.04222322        0.00496410        0.00016427        0.00489215
     139         -0.605908        2.000000        0.04209113        0.00495798        0.00016271        0.00489951
     140         -0.605730        2.000000        0.00251687        0.00031481        0.00001443        0.00029912
     141         -0.605712        2.000000        0.00058009        0.00006848        0.00000206        0.00006995
     142         -0.605499        2.000000        0.00033423        0.00003962        0.00000269        0.00003813
     143         -0.601437        2.000000        0.00002577        0.00000420        0.00000370        0.00000385
     144         -0.601421        2.000000        0.00001978        0.00000265        0.00000333        0.00000285
     145         -0.601368        2.000000        0.00004625        0.00000594        0.00000864        0.00000782
     146         -0.588142        2.000000        0.00719958        0.00122371        0.00047565        0.00215353
     147         -0.588111        2.000000        0.00747688        0.00224344        0.00044992        0.00111665
     148         -0.588024        2.000000        0.00669500        0.00100090        0.00063768        0.00226793
     149         -0.587989        2.000000        0.00677216        0.00205558        0.00062798        0.00123237
     150         -0.585683        2.000000        0.01178047        0.00121396        0.00008575        0.00109345
     151         -0.585654        2.000000        0.01179678        0.00140440        0.00007598        0.00089737
     152         -0.585393        2.000000        0.01096413        0.00096559        0.00007166        0.00136504
     153         -0.585306        2.000000        0.01091056        0.00120468        0.00007251        0.00116173
     154         -0.580488        2.000000        0.02131059        0.00249717        0.00173013        0.00245918
     155         -0.576850        2.000000        0.02137015        0.00229193        0.00143241        0.00227863
     156         -0.566381        2.000000        0.00000166        0.00000039        0.00000021        0.00000069
     157         -0.566303        2.000000        0.00000078        0.00000035        0.00000020        0.00000122
     158         -0.566266        2.000000        0.00000167        0.00000177        0.00000223        0.00000053
     159         -0.562209        2.000000        0.00000864        0.00000235        0.00000688        0.00000250
     160         -0.562102        2.000000        0.00000807        0.00000072        0.00000265        0.00000167
     161         -0.562052        2.000000        0.00000846        0.00000095        0.00000091        0.00000145
     162         -0.545834        2.000000        0.05516638        0.00256383        0.00023177        0.00481509
     163         -0.545692        2.000000        0.05561049        0.00478455        0.00024222        0.00262618
     164         -0.545674        2.000000        0.05560928        0.00487250        0.00023937        0.00253380
     165         -0.545638        2.000000        0.05518919        0.00262114        0.00023076        0.00475633
     166         -0.542645        2.000000        0.03261738        0.00217028        0.00027671        0.00196851
     167         -0.541210        2.000000        0.03757713        0.00246353        0.00023013        0.00220115
     168         -0.535636        2.000000        0.02325489        0.00494790        0.00075709        0.00151544
     169         -0.535521        2.000000        0.02404329        0.00571610        0.00078545        0.00073472
     170         -0.535286        2.000000        0.02743402        0.00140507        0.00105047        0.00475132
     171         -0.535145        2.000000        0.02591153        0.00067150        0.00104765        0.00548552
     172         -0.530361        2.000000        0.06284672        0.00554749        0.00075658        0.00555182
     173         -0.530242        2.000000        0.06243224        0.00555954        0.00077793        0.00540402
     174         -0.530197        2.000000        0.06261988        0.00511234        0.00100117        0.00493414
     175         -0.530018        2.000000        0.05251221        0.00411069        0.00080452        0.00434283
     176         -0.529927        2.000000        0.00486035        0.00038430        0.00007010        0.00035114
     177         -0.529885        2.000000        0.00269943        0.00020362        0.00003760        0.00019841
     178         -0.529855        2.000000        0.01311245        0.00101516        0.00018433        0.00101028
     179         -0.529583        2.000000        0.00027442        0.00002253        0.00000337        0.00001687
     180         -0.529348        2.000000        0.00024246        0.00001451        0.00000327        0.00001415
     181         -0.526473        2.000000        0.00003887        0.00000182        0.00000179        0.00000357
     182         -0.525898        2.000000        0.00006310        0.00000462        0.00000400        0.00000652
     183         -0.525749        2.000000        0.00003384        0.00001089        0.00000292        0.00000701
     184         -0.525644        2.000000        0.00003035        0.00000517        0.00000516        0.00000602
     185         -0.525590        2.000000        0.00004482        0.00000712        0.00000416        0.00000649
     186         -0.525479        2.000000        0.00002154        0.00000493        0.00000177        0.00000193
     187         -0.525374        2.000000        0.00005966        0.00000334        0.00000100        0.00000579
     188         -0.525170        2.000000        0.00003292        0.00000459        0.00000215        0.00000150
     189         -0.521715        2.000000        0.00005524        0.00000821        0.00000445        0.00001048
     190         -0.521655        2.000000        0.00005459        0.00001333        0.00001604        0.00001915
     191         -0.521473        2.000000        0.00002878        0.00000890        0.00000330        0.00000540
     192         -0.519121        2.000000        0.00271297        0.00412045        0.00208724        0.00414584
     193         -0.519008        2.000000        0.00268558        0.00416404        0.00209769        0.00408652
     194         -0.509377        2.000000        0.00002553        0.00000156        0.00000114        0.00000158
     195         -0.508657        2.000000        0.08753922        0.00467455        0.00079477        0.00473335
     196         -0.505984        2.000000        0.08677954        0.00459794        0.00094820        0.00453772
     197         -0.505069        2.000000        0.00083977        0.00004692        0.00000916        0.00004446
     198         -0.501514        2.000000        0.12867924        0.00561292        0.00045544        0.00527086
     199         -0.500171        2.000000        0.06158272        0.00267869        0.00056060        0.00404042
     200         -0.500078        2.000000        0.05403175        0.00324568        0.00043896        0.00300988
     201         -0.499911        2.000000        0.05413379        0.00344999        0.00033356        0.00318220
     202         -0.499864        2.000000        0.05603260        0.00413105        0.00032405        0.00253081
     203         -0.499686        2.000000        0.11331234        0.00431266        0.00022559        0.00583630
     204         -0.498369        2.000000        0.00341655        0.00080346        0.00018146        0.00066193
     205         -0.498281        2.000000        0.00326420        0.00074340        0.00019229        0.00068216
     206         -0.498223        2.000000        0.00241149        0.00067222        0.00017730        0.00059203
     207         -0.498202        2.000000        0.00357468        0.00084163        0.00017890        0.00062678
     208         -0.495705        2.000000        0.00012034        0.00034689        0.00008262        0.00022614
     209         -0.495699        2.000000        0.00019148        0.00040716        0.00008523        0.00016227
     210         -0.495336        2.000000        0.00056619        0.00016030        0.00009952        0.00035668
     211         -0.495236        2.000000        0.00068634        0.00023191        0.00010115        0.00028221
     212         -0.470667        2.000000        0.00431589        0.00247590        0.00098490        0.00235323
     213         -0.470654        2.000000        0.00434014        0.00248738        0.00099107        0.00235470
     214         -0.467291        2.000000        0.00316192        0.00019309        0.00004048        0.00012300
     215         -0.467187        2.000000        0.01286563        0.00093701        0.00014673        0.00040258
     216         -0.467178        2.000000        0.03788985        0.00267641        0.00044735        0.00117210
     217         -0.467111        2.000000        0.01458229        0.00108169        0.00016547        0.00039351
     218         -0.467089        2.000000        0.03179476        0.00198544        0.00035699        0.00122959
     219         -0.467036        2.000000        0.04050047        0.00318067        0.00048547        0.00092258
     220         -0.466937        2.000000        0.06381757        0.00220532        0.00094454        0.00419484
     221         -0.466797        2.000000        0.06716523        0.00152992        0.00093987        0.00518488
     222         -0.463194        2.000000        0.00034794        0.00001735        0.00000978        0.00001483
     223         -0.463028        2.000000        0.00025187        0.00001580        0.00000706        0.00000964
     224         -0.462966        2.000000        0.00012076        0.00000544        0.00000580        0.00000899
     225         -0.462934        2.000000        0.00017792        0.00000902        0.00000847        0.00000725
     226         -0.460940        2.000000        0.04451973        0.00276238        0.00069643        0.00258328
     227         -0.460807        2.000000        0.04461166        0.00272344        0.00072720        0.00255599
     228         -0.460431        2.000000        0.04491314        0.00260586        0.00060650        0.00282930
     229         -0.460315        2.000000        0.04500307        0.00259670        0.00062636        0.00283584
     230         -0.459580        2.000000        0.06032706        0.00094547        0.00198082        0.00092899
     231         -0.455798        2.000000        0.09457930        0.00064974        0.00390451        0.00064185
     232         -0.448362        2.000000        0.07978639        0.00052235        0.00291122        0.00052215
     233         -0.442328        2.000000        0.00000562        0.00000101        0.00000064        0.00000262
     234         -0.441949        2.000000        0.00000517        0.00000065        0.00000040        0.00000181
     235         -0.441738        2.000000        0.00000157        0.00000030        0.00000013        0.00000078
     236         -0.441700        2.000000        0.00000058        0.00000025        0.00000060        0.00000121
     237         -0.441328        2.000000        0.00000927        0.00000087        0.00000166        0.00000061
     238         -0.437849        2.000000        0.00005460        0.00000244        0.00000270        0.00000138
     239         -0.437820        2.000000        0.00012414        0.00000534        0.00000563        0.00000718
     240         -0.437771        2.000000        0.00012459        0.00000304        0.00000384        0.00000387
     241         -0.437710        2.000000        0.00018474        0.00000557        0.00000798        0.00000574
     242         -0.437643        2.000000        0.00020553        0.00000263        0.00000824        0.00000352
     243         -0.436396        2.000000        0.06268936        0.00072271        0.00186533        0.00074048
     244         -0.433060        2.000000        0.00079083        0.00004032        0.00002911        0.00003372
     245         -0.433042        2.000000        0.00082878        0.00003932        0.00003050        0.00003644
     246         -0.430117        2.000000        0.00000969        0.00000061        0.00000118        0.00000349
     247         -0.429997        2.000000        0.00000631        0.00000116        0.00000097        0.00000089
     248         -0.429619        2.000000        0.00080396        0.00008124        0.00010947        0.00009037
     249         -0.429615        2.000000        0.00079049        0.00008385        0.00010778        0.00008904
     250         -0.429518        2.000000        0.00002847        0.00000225        0.00000482        0.00000333
     251         -0.427071        2.000000        0.05932916        0.00076766        0.00201801        0.00057786
     252         -0.425845        2.000000        0.00014034        0.00000821        0.00000507        0.00001794
     253         -0.425719        2.000000        0.00023119        0.00000535        0.00001260        0.00000813
     254         -0.425648        2.000000        0.00007266        0.00000510        0.00000475        0.00000386
     255         -0.423897        2.000000        0.07261933        0.00349986        0.00239326        0.00248198
     256         -0.422643        2.000000        0.03069963        0.00156110        0.00142304        0.00323644
     257         -0.422489        2.000000        0.02994902        0.00156326        0.00140481        0.00316036
     258         -0.422474        2.000000        0.02538809        0.00263150        0.00126480        0.00206050
     259         -0.422375        2.000000        0.02576648        0.00264576        0.00127219        0.00206126