
     Program PWSCF v.6.2 (svn rev. 14038) starts on 22Jun2021 at 18:54:16 

     This program is part of the open-source Quantum ESPRESSO suite
     for quantum simulation of materials; please cite
         "P. Giannozzi et al., J. Phys.:Condens. Matter 21 395502 (2009);
         "P. Giannozzi et al., J. Phys.:Condens. Matter 29 465901 (2017);
          URL http://www.quantum-espresso.org", 
     in publications or presentations arising from this work. More details at
     http://www.quantum-espresso.org/quote

     Parallel version (MPI), running on    12 processors

     MPI processes distributed on     1 nodes
     R & G space division:  proc/nbgrp/npool/nimage =      12
     Waiting for input...
     Reading input from standard input

     Current dimensions of program PWSCF are:
     Max number of different atomic species (ntypx) = 10
     Max number of k-points (npk) =  40000
     Max angular momentum in pseudopotentials (lmaxx) =  3
               file Ir.pbe-n-rrkjus_psl.0.2.3.UPF: wavefunction(s)  5D renormalized

     gamma-point specific algorithms are used

     Subspace diagonalization in iterative solution of the eigenvalue problem:
     a serial algorithm will be used

 
     Parallelization info
     --------------------
     sticks:   dense  smooth     PW     G-vecs:    dense   smooth      PW
     Min         353     140     34                17398     4383     546
     Max         356     144     36                17404     4390     556
     Sum        4257    1701    421               208801    52635    6619
 


     bravais-lattice index     =            0
     lattice parameter (alat)  =      13.3514  a.u.
     unit-cell volume          =    2380.0325 (a.u.)^3
     number of atoms/cell      =           25
     number of atomic types    =            4
     number of electrons       =        72.00
     number of Kohn-Sham states=          100
     kinetic-energy cutoff     =      30.0000  Ry
     charge density cutoff     =     300.0000  Ry
     convergence threshold     =      1.0E-04
     mixing beta               =       0.3000
     number of iterations used =            8  plain     mixing
     Exchange-correlation      = PBE ( 1  4  3  4 0 0)

     celldm(1)=  13.351425  celldm(2)=   0.000000  celldm(3)=   0.000000
     celldm(4)=   0.000000  celldm(5)=   0.000000  celldm(6)=   0.000000

     crystal axes: (cart. coord. in units of alat)
               a(1) = (   1.000000   0.000000   0.000000 )  
               a(2) = (   0.000000   1.000000   0.000000 )  
               a(3) = (   0.000000   0.000000   1.000000 )  

     reciprocal axes: (cart. coord. in units 2 pi/alat)
               b(1) = (  1.000000  0.000000  0.000000 )  
               b(2) = (  0.000000  1.000000  0.000000 )  
               b(3) = (  0.000000  0.000000  1.000000 )  


     PseudoPot. # 1 for C  read from file:
     /util/academic/espresso/6.2.1/pseudopotentials/upf_files/C.pbe-n-rrkjus_psl.0.1.UPF
     MD5 check sum: ab446d787031eba755f1d5ee46644bb0
     Pseudo is Ultrasoft + core correction, Zval =  4.0
     Generated using "atomic" code by A. Dal Corso v.5.0.2 svn rev. 9415
     Using radial grid of 1073 points,  4 beta functions with: 
                l(1) =   0
                l(2) =   0
                l(3) =   1
                l(4) =   1
     Q(r) pseudized with 0 coefficients 


     PseudoPot. # 2 for H  read from file:
     /util/academic/espresso/6.2.1/pseudopotentials/upf_files/H.pbe-rrkjus_psl.0.1.UPF
     MD5 check sum: bd57da0722753ddfd9833a65b40bb853
     Pseudo is Ultrasoft, Zval =  1.0
     Generated using "atomic" code by A. Dal Corso v.5.0.2 svn rev. 9415
     Using radial grid of  929 points,  2 beta functions with: 
                l(1) =   0
                l(2) =   0
     Q(r) pseudized with 0 coefficients 


     PseudoPot. # 3 for Ir read from file:
     /util/academic/espresso/6.2.1/pseudopotentials/upf_files/Ir.pbe-n-rrkjus_psl.0.2.3.UPF
     MD5 check sum: 0d5bc36db6a0bde07ee800c0d8fcbb77
     Pseudo is Ultrasoft + core correction, Zval =  9.0
     Generated using "atomic" code by A. Dal Corso v.5.0.2 svn rev. 9415
     Using radial grid of 1277 points,  6 beta functions with: 
                l(1) =   0
                l(2) =   0
                l(3) =   1
                l(4) =   1
                l(5) =   2
                l(6) =   2
     Q(r) pseudized with 0 coefficients 


     PseudoPot. # 4 for N  read from file:
     /util/academic/espresso/6.2.1/pseudopotentials/upf_files/N.pbe-n-rrkjus_psl.0.1.UPF
     MD5 check sum: ed8b6a90f28a53b7d71920e7015d2dd6
     Pseudo is Ultrasoft + core correction, Zval =  5.0
     Generated using "atomic" code by A. Dal Corso v.5.0.2 svn rev. 9415
     Using radial grid of 1085 points,  4 beta functions with: 
                l(1) =   0
                l(2) =   0
                l(3) =   1
                l(4) =   1
     Q(r) pseudized with 0 coefficients 


     atomic species   valence    mass     pseudopotential
        C              4.00    12.01000     C ( 1.00)
        H              1.00     1.00700     H ( 1.00)
        Ir             9.00   192.21700     Ir( 1.00)
        N              5.00    14.00600     N ( 1.00)

     No symmetry found



   Cartesian axes

     site n.     atom                  positions (alat units)
         1           Ir  tau(   1) = (  -0.0000709   0.0013151  -0.0008843  )
         2           N   tau(   2) = (   0.1330034  -0.2208807  -0.1631751  )
         3           N   tau(   3) = (  -0.2548857  -0.0045588  -0.1601314  )
         4           N   tau(   4) = (   0.1344897   0.2203048  -0.1626835  )
         5           C   tau(   5) = (  -0.0683827   0.2228392   0.1533156  )
         6           C   tau(   6) = (   0.2198536  -0.0514421   0.1535760  )
         7           C   tau(   7) = (   0.2858922  -0.2794175  -0.0781620  )
         8           C   tau(   8) = (   0.3294992  -0.1867272   0.0882083  )
         9           C   tau(   9) = (  -0.1577259  -0.1672054   0.1560868  )
        10           C   tau(  10) = (   0.0910005   0.3863354  -0.0881035  )
        11           C   tau(  11) = (  -0.0093825   0.3990279   0.0888901  )
        12           C   tau(  12) = (  -0.3822585  -0.1163055  -0.0905898  )
        13           C   tau(  13) = (  -0.3281868  -0.2160492   0.0850462  )
        14           H   tau(  14) = (   0.2537806   0.0239121   0.2842759  )
        15           H   tau(  15) = (   0.4500994  -0.2350237   0.1841211  )
        16           H   tau(  16) = (   0.3849085  -0.3859681  -0.1229701  )
        17           H   tau(  17) = (   0.1297191   0.5074293  -0.1806777  )
        18           H   tau(  18) = (  -0.0311502   0.5318699   0.1640626  )
        19           H   tau(  19) = (  -0.1619888   0.2163163   0.2765832  )
        20           H   tau(  20) = (  -0.2961464  -0.3954541   0.1236880  )
        21           H   tau(  21) = (  -0.1153285  -0.2207171   0.2946011  )
        22           H   tau(  22) = (  -0.4990251  -0.1261237  -0.1944899  )
        23           H   tau(  23) = (   0.0948002  -0.3031389  -0.2697211  )
        24           H   tau(  24) = (   0.1696215   0.2321861  -0.3009302  )
        25           H   tau(  25) = (  -0.3062905   0.0817690  -0.2635780  )

     number of k points=     1  gaussian smearing, width (Ry)=  0.0100
                       cart. coord. in units 2pi/alat
        k(    1) = (   0.0000000   0.0000000   0.0000000), wk =   2.0000000

     Dense  grid:   104401 G-vectors     FFT dimensions: (  75,  75,  75)

     Smooth grid:    26318 G-vectors     FFT dimensions: (  48,  48,  48)

     Estimated max dynamical RAM per process >      46.16 MB

     Estimated total dynamical RAM >     553.92 MB

     Check: negative/imaginary core charge=   -0.000002    0.000000

     Initial potential from superposition of free atoms

     starting charge   71.99934, renormalised to   72.00000
     Starting wfc are   69 randomized atomic wfcs +   31 random wfc

     total cpu time spent up to now is        2.5 secs

     Self-consistent Calculation

     iteration #  1     ecut=    30.00 Ry     beta= 0.30
     Davidson diagonalization with overlap
     ethr =  1.00E-02,  avg # of iterations =  5.0

     total cpu time spent up to now is        2.9 secs

     total energy              =    -243.47353246 Ry
     Harris-Foulkes estimate   =    -244.74579446 Ry
     estimated scf accuracy    <       3.33972577 Ry

     iteration #  2     ecut=    30.00 Ry     beta= 0.30
     Davidson diagonalization with overlap
     ethr =  4.64E-03,  avg # of iterations =  1.0

     total cpu time spent up to now is        3.1 secs

     total energy              =    -243.56681266 Ry
     Harris-Foulkes estimate   =    -243.85875172 Ry
     estimated scf accuracy    <       0.81800323 Ry

     iteration #  3     ecut=    30.00 Ry     beta= 0.30
     Davidson diagonalization with overlap
     ethr =  1.14E-03,  avg # of iterations =  4.0

     total cpu time spent up to now is        3.4 secs

     total energy              =    -243.60004620 Ry
     Harris-Foulkes estimate   =    -243.70464583 Ry
     estimated scf accuracy    <       0.34494731 Ry

     iteration #  4     ecut=    30.00 Ry     beta= 0.30
     Davidson diagonalization with overlap
     ethr =  4.79E-04,  avg # of iterations =  2.0

     total cpu time spent up to now is        3.6 secs

     total energy              =    -243.62394941 Ry
     Harris-Foulkes estimate   =    -243.64286626 Ry
     estimated scf accuracy    <       0.05794123 Ry

     iteration #  5     ecut=    30.00 Ry     beta= 0.30
     Davidson diagonalization with overlap
     ethr =  8.05E-05,  avg # of iterations =  5.0

     total cpu time spent up to now is        3.9 secs

     total energy              =    -243.63327103 Ry
     Harris-Foulkes estimate   =    -243.63424437 Ry
     estimated scf accuracy    <       0.00548851 Ry

     iteration #  6     ecut=    30.00 Ry     beta= 0.30
     Davidson diagonalization with overlap
     ethr =  7.62E-06,  avg # of iterations =  2.0

     total cpu time spent up to now is        4.1 secs

     total energy              =    -243.63369605 Ry
     Harris-Foulkes estimate   =    -243.63380488 Ry
     estimated scf accuracy    <       0.00094055 Ry

     iteration #  7     ecut=    30.00 Ry     beta= 0.30
     Davidson diagonalization with overlap
     ethr =  1.31E-06,  avg # of iterations =  3.0

     total cpu time spent up to now is        4.4 secs

     End of self-consistent calculation

          k = 0.0000 0.0000 0.0000 (  3310 PWs)   bands (ev):

   -18.7631 -18.3743 -17.9628 -14.6101 -14.0792 -13.8977 -11.7300 -10.8280
   -10.6290  -9.2189  -8.4871  -8.4451  -8.3221  -7.6992  -7.5053  -6.3719
    -6.0351  -5.8201  -5.6546  -5.1711  -4.9893  -4.7168  -4.3115  -4.1873
    -4.1249  -3.6343  -3.2759  -2.4950  -2.2828  -2.1615  -1.6000  -1.4442
    -0.9553  -0.2876  -0.1959   0.6844   1.8886   2.5738   2.9767   3.2020
     4.2460   5.1709   5.2856   5.5441   5.6489   5.8089   5.9235   6.1318
     6.6038   6.8120   6.9491   7.2292   7.6793   7.8873   8.3143   8.3715
     8.6080   9.0197   9.1089   9.2020   9.4094   9.5399   9.9198  10.3752
    10.5953  10.9198  11.0463  11.2640  11.4327  11.7023  11.8129  12.2498
    12.3144  12.6037  12.7696  12.9832  13.1710  13.2591  13.4761  13.8172
    13.9766  14.2191  14.4322  14.6265  14.7751  14.8395  14.9989  15.1139
    15.2381  15.3032  15.5570  15.6764  15.7280  15.9785  16.4384  16.5323
    16.6106  16.7613  16.9106  17.0009

     the Fermi energy is     1.2862 ev

!    total energy              =    -243.63385834 Ry
     Harris-Foulkes estimate   =    -243.63378745 Ry
     estimated scf accuracy    <       0.00007837 Ry

     The total energy is the sum of the following terms:

     one-electron contribution =    -347.48855513 Ry
     hartree contribution      =     197.94841041 Ry
     xc contribution           =     -93.41952344 Ry
     ewald contribution        =      -0.67419019 Ry
     smearing contrib. (-TS)   =      -0.00000000 Ry

     convergence has been achieved in   7 iterations

     Writing output data file x0.save
 
     init_run     :      0.42s CPU      0.47s WALL (       1 calls)
     electrons    :      1.79s CPU      1.95s WALL (       1 calls)

     Called by init_run:
     wfcinit      :      0.03s CPU      0.04s WALL (       1 calls)
     potinit      :      0.08s CPU      0.08s WALL (       1 calls)

     Called by electrons:
     c_bands      :      0.89s CPU      0.91s WALL (       7 calls)
     sum_band     :      0.42s CPU      0.43s WALL (       7 calls)
     v_of_rho     :      0.23s CPU      0.23s WALL (       8 calls)
     newd         :      0.27s CPU      0.29s WALL (       8 calls)
     mix_rho      :      0.03s CPU      0.03s WALL (       7 calls)

     Called by c_bands:
     init_us_2    :      0.00s CPU      0.00s WALL (      15 calls)
     regterg      :      0.87s CPU      0.90s WALL (       7 calls)

     Called by sum_band:
     sum_band:bec :      0.00s CPU      0.00s WALL (       7 calls)
     addusdens    :      0.29s CPU      0.30s WALL (       7 calls)

     Called by *egterg:
     h_psi        :      0.43s CPU      0.45s WALL (      30 calls)
     s_psi        :      0.01s CPU      0.01s WALL (      30 calls)
     g_psi        :      0.00s CPU      0.00s WALL (      22 calls)
     rdiaghg      :      0.35s CPU      0.35s WALL (      29 calls)

     Called by h_psi:
     h_psi:pot    :      0.43s CPU      0.45s WALL (      30 calls)
     h_psi:calbec :      0.02s CPU      0.02s WALL (      30 calls)
     vloc_psi     :      0.40s CPU      0.42s WALL (      30 calls)
     add_vuspsi   :      0.01s CPU      0.01s WALL (      30 calls)

     General routines
     calbec       :      0.02s CPU      0.02s WALL (      37 calls)
     fft          :      0.26s CPU      0.27s WALL (     124 calls)
     ffts         :      0.01s CPU      0.01s WALL (      15 calls)
     fftw         :      0.43s CPU      0.44s WALL (    2180 calls)
     interpolate  :      0.04s CPU      0.04s WALL (      15 calls)
 
     Parallel routines
     fft_scatt_xy :      0.04s CPU      0.04s WALL (    2319 calls)
     fft_scatt_yz :      0.17s CPU      0.18s WALL (    2319 calls)
 
     PWSCF        :     3.73s CPU         5.15s WALL

 
   This run was terminated on:  18:54:21  22Jun2021            

=------------------------------------------------------------------------------=
   JOB DONE.
=------------------------------------------------------------------------------=
